<UPF version="2.0.1">
  <PP_INFO>
    Generated using FHI98PP, converted with fhi2upf.x v.5.0.2
    Author: Wenhui Mi
    Generation date: July 22 2018
    Pseudopotential type: SL
    Element: Ba
    Functional: PZ

    Suggested minimum cutoff for wavefunctions:   0. Ry
    Suggested minimum cutoff for charge density:   0. Ry
    The Pseudo was generated with a Scalar-Relativistic Calculation
    L component and cutoff radius for Local Potential:  0   0.0000

    Valence configuration: 
    nl pn  l   occ       Rcut    Rcut US       E pseu
    6s  6  0  0.50      0.000      0.000     0.000000
    6p  6  1  0.50      0.000      0.000     0.000000
    6d  6  2  0.00      0.000      0.000     0.000000

    Generation configuration: not available.
    Comment:
    Info: automatically converted from FHI format
  </PP_INFO>
  <!--                               -->
  <!-- END OF HUMAN READABLE SECTION -->
  <!--                               -->
  <PP_HEADER generated="Generated using FHI98PP, converted with fhi2upf.x v.5.0.2"
             author="unknown"
             date="unknown"
             comment="Info: automatically converted from FHI format"
             element="Ba"
             pseudo_type="SL"
             relativistic="scalar"
             is_ultrasoft="F"
             is_paw="F"
             is_coulomb="F"
             has_so="F"
             has_wfc="F"
             has_gipaw="F"
             paw_as_gipaw="F"
             core_correction="T"
             functional="PZ"
             z_valence="2.000000000000000E+000"
             total_psenergy="0.000000000000000E+000"
             wfc_cutoff="0.000000000000000E+000"
             rho_cutoff="0.000000000000000E+000"
             l_max="2"
             l_max_rho="0"
             l_local="0"
             mesh_size="553"
             number_of_wfc="3"
             number_of_proj="2"/>
  <PP_MESH dx="2.439988682353512E-002" mesh="553" xmin="-Infinity" rmax="7.890242958700600E+001" zmesh="0.000000000000000E+000">
    <PP_R type="real" size="553" columns="4">
 1.116071428571400E-004  1.143638392857100E-004  1.171886261160700E-004  1.200831851811400E-004 
 1.230492398551100E-004  1.260885560795300E-004  1.292029434147000E-004  1.323942561170400E-004 
 1.356643942431300E-004  1.390153047809400E-004  1.424489828090300E-004  1.459674726844100E-004 
 1.495728692597100E-004  1.532673191304300E-004  1.570530219129500E-004  1.609322315542000E-004 
 1.649072576735900E-004  1.689804669381300E-004  1.731542844715000E-004  1.774311952979500E-004 
 1.818137458218000E-004  1.863045453436000E-004  1.909062676135900E-004  1.956216524236500E-004 
 2.004535072385100E-004  2.054047088673000E-004  2.104782051763200E-004  2.156770168441800E-004 
 2.210042391602300E-004  2.264630438674900E-004  2.320566810510100E-004  2.377884810729700E-004 
 2.436618565554800E-004  2.496803044124000E-004  2.558474079313800E-004  2.621668389072900E-004 
 2.686423598283000E-004  2.752778261160600E-004  2.820771884211200E-004  2.890444949751300E-004 
 2.961838940010100E-004  3.034996361828400E-004  3.109960771965500E-004  3.186776803033100E-004 
 3.265490190068000E-004  3.346147797762700E-004  3.428797648367400E-004  3.513488950282100E-004 
 3.600272127354000E-004  3.689198848899700E-004  3.780322060467500E-004  3.873696015361100E-004 
 3.969376306940500E-004  4.067419901721900E-004  4.167885173294400E-004  4.270831937074800E-004 
 4.376321485920600E-004  4.484416626622800E-004  4.595181717300400E-004  4.708682705717700E-004 
 4.824987168548900E-004  4.944164351612100E-004  5.066285211096900E-004  5.191422455811000E-004 
 5.319650590469500E-004  5.451045960054100E-004  5.585686795267500E-004  5.723653259110600E-004 
 5.865027494610600E-004  6.009893673727500E-004  6.158338047468500E-004  6.310448997241000E-004 
 6.466317087472900E-004  6.626035119533400E-004  6.789698186985900E-004  6.957403732204500E-004 
 7.129251604389900E-004  7.305344119018300E-004  7.485786118758100E-004  7.670685035891400E-004 
 7.860150956277900E-004  8.054296684897999E-004  8.253237813015000E-004  8.457092786996500E-004 
 8.665982978835300E-004  8.880032758412500E-004  9.099369567545300E-004  9.324123995863700E-004 
 9.554429858561500E-004  9.790424276068001E-004  1.003224775568700E-003  1.028004427525200E-003 
 1.053396136885100E-003  1.079415021466200E-003  1.106076572496400E-003  1.133396663837000E-003 
 1.161391561433800E-003  1.190077933001200E-003  1.219472857946400E-003  1.249593837537600E-003 
 1.280458805324800E-003  1.312086137816300E-003  1.344494665420400E-003  1.377703683656300E-003 
 1.411732964642600E-003  1.446602768869300E-003  1.482333857260300E-003  1.518947503534700E-003 
 1.556465506872000E-003  1.594910204891700E-003  1.634304486952500E-003  1.674671807780300E-003 
 1.716036201432400E-003  1.758422295607800E-003  1.801855326309300E-003  1.846361152869200E-003 
 1.891966273345000E-003  1.938697840296700E-003  1.986583676952000E-003  2.035652293772700E-003 
 2.085932905428900E-003  2.137455448193000E-003  2.190250597763400E-003  2.244349787528100E-003 
 2.299785227280000E-003  2.356589922393900E-003  2.414797693477000E-003  2.474443196505900E-003 
 2.535561943459600E-003  2.598190323463000E-003  2.662365624452600E-003  2.728126055376500E-003 
 2.795510768944300E-003  2.864559884937300E-003  2.935314514095200E-003  3.007816782593400E-003 
 3.082109857123400E-003  3.158237970594400E-003  3.236246448468000E-003  3.316181735745200E-003 
 3.398091424618100E-003  3.482024282806200E-003  3.568030282591500E-003  3.656160630571500E-003 
 3.746467798146600E-003  3.839005552760800E-003  3.933828989914000E-003  4.030994565964900E-003 
 4.130560131744200E-003  4.232584966998300E-003  4.337129815683200E-003  4.444256922130600E-003 
 4.554030068107200E-003  4.666514610789400E-003  4.781777521675900E-003  4.899887426461300E-003 
 5.020914645894900E-003  5.144931237648500E-003  5.272011039218400E-003  5.402229711887100E-003 
 5.535664785770800E-003  5.672395705979300E-003  5.812503879917000E-003  5.956072725750900E-003 
 6.103187722077000E-003  6.253936458812300E-003  6.408408689344900E-003  6.566696383971800E-003 
 6.728893784655900E-003  6.895097461136900E-003  7.065406368426900E-003  7.239921905727100E-003 
 7.418747976798500E-003  7.601991051825500E-003  7.789760230805600E-003  7.982167308506399E-003 
 8.179326841026600E-003  8.381356213999901E-003  8.588375712485699E-003  8.800508592584100E-003 
 9.017881154820899E-003  9.240622819345000E-003  9.468866202982800E-003  9.702747198196500E-003 
 9.942405053992000E-003  1.018798245882600E-002  1.043962562555900E-002  1.069748437851000E-002 
 1.096171224265900E-002  1.123246653505300E-002  1.150990845846900E-002  1.179420319739300E-002 
 1.208552001636800E-002  1.238403236077300E-002  1.268991796008400E-002  1.300335893369800E-002 
 1.332454189936000E-002  1.365365808427400E-002  1.399090343895600E-002  1.433647875389800E-002 
 1.469058977911900E-002  1.505344734666400E-002  1.542526749612600E-002  1.580627160328000E-002 
 1.619668651188200E-002  1.659674466872500E-002  1.700668426204200E-002  1.742674936331500E-002 
 1.785719007258900E-002  1.829826266738200E-002  1.875022975526600E-002  1.921336043022100E-002 
 1.968793043284800E-002  2.017422231453900E-002  2.067252560570800E-002  2.118313698816900E-002 
 2.170636047177700E-002  2.224250757543000E-002  2.279189751254300E-002  2.335485738110300E-002 
 2.393172235841600E-002  2.452283590066900E-002  2.512854994741500E-002  2.574922513111600E-002 
 2.638523099185500E-002  2.703694619735400E-002  2.770475876842800E-002  2.838906631000900E-002 
 2.909027624786600E-002  2.980880607118800E-002  3.054508358114600E-002  3.129954714560100E-002 
 3.207264596009700E-002  3.286484031531100E-002  3.367660187110000E-002  3.450841393731600E-002 
 3.536077176156800E-002  3.623418282407800E-002  3.712916713983300E-002  3.804625756818700E-002 
 3.898600013012100E-002  3.994895433333500E-002  4.093569350536800E-002  4.194680513495100E-002 
 4.298289122178400E-002  4.404456863496200E-002  4.513246948024600E-002  4.624724147640800E-002 
 4.738954834087500E-002  4.856007018489500E-002  4.975950391846200E-002  5.098856366524800E-002 
 5.224798118777900E-002  5.353850632311800E-002  5.486090742929900E-002  5.621597184280200E-002 
 5.760450634732000E-002  5.902733765409800E-002  6.048531289415500E-002  6.197930012264000E-002 
 6.351018883566900E-002  6.507889049991000E-002  6.668633909525799E-002  6.833349167091100E-002 
 7.002132891518301E-002  7.175085573938800E-002  7.352310187614999E-002  7.533912249249100E-002 
 7.719999881805600E-002  7.910683878886200E-002  8.106077770694700E-002  8.306297891630800E-002 
 8.511463449554101E-002  8.721696596758099E-002  8.937122502698000E-002  9.157869428514701E-002 
 9.384068803399000E-002  9.615855302842900E-002  9.853366928823100E-002  1.009674509196500E-001 
 1.034613469573700E-001  1.060168422272100E-001  1.086354582302300E-001  1.113187540485100E-001 
 1.140683272735100E-001  1.168858149571700E-001  1.197728945866100E-001  1.227312850829000E-001 
 1.257627478244400E-001  1.288690876957100E-001  1.320521541617900E-001  1.353138423695900E-001 
 1.386560942761200E-001  1.420808998047400E-001  1.455902980299100E-001  1.491863783912500E-001 
 1.528712819375200E-001  1.566472026013700E-001  1.605163885056300E-001  1.644811433017200E-001 
 1.685438275412700E-001  1.727068600815400E-001  1.769727195255500E-001  1.813439456978300E-001 
 1.858231411565700E-001  1.904129727431400E-001  1.951161731698900E-001  1.999355426471900E-001 
 2.048739505505700E-001  2.099343371291700E-001  2.151197152562600E-001  2.204331722230900E-001 
 2.258778715770000E-001  2.314570550049600E-001  2.371740442635800E-001  2.430322431568900E-001 
 2.490351395628600E-001  2.551863075100700E-001  2.614894093055700E-001  2.679481977154100E-001 
 2.745665181989800E-001  2.813483111985000E-001  2.882976144851000E-001  2.954185655628800E-001 
 3.027154041322900E-001  3.101924746143500E-001  3.178542287373300E-001  3.257052281871400E-001 
 3.337501473233600E-001  3.419937759622500E-001  3.504410222285200E-001  3.590969154775600E-001 
 3.679666092898600E-001  3.770553845393200E-001  3.863686525374400E-001  3.959119582551100E-001 
 4.056909836240200E-001  4.157115509195300E-001  4.259796262272400E-001  4.365013229950500E-001 
 4.472829056730300E-001  4.583307934431600E-001  4.696515640412000E-001  4.812519576730200E-001 
 4.931388810275400E-001  5.053194113889200E-001  5.178008008502299E-001  5.305904806312300E-001 
 5.436960655028200E-001  5.571253583207399E-001  5.708863546712600E-001  5.849872476316400E-001 
 5.994364326481399E-001  6.142425125345500E-001  6.294143025941600E-001  6.449608358682301E-001 
 6.608913685141800E-001  6.772153853164800E-001  6.939426053338000E-001  7.110829876855400E-001 
 7.286467374813700E-001  7.466443118971600E-001  7.650864264010200E-001  7.839840611331300E-001 
 8.033484674431201E-001  8.231911745889600E-001  8.435239966013101E-001  8.643590393173600E-001 
 8.857087075885000E-001  9.075857126659400E-001  9.300030797687800E-001  9.529741558390700E-001 
 9.765126174883000E-001  1.000632479140300E+000  1.025348101375000E+000  1.050674199479000E+000 
 1.076625852206100E+000  1.103218510755600E+000  1.130468007971300E+000  1.158390567768200E+000 
 1.187002814792000E+000  1.216321784317400E+000  1.246364932390000E+000  1.277150146220100E+000 
 1.308695754831700E+000  1.341020539976100E+000  1.374143747313500E+000  1.408085097872100E+000 
 1.442864799789500E+000  1.478503560344300E+000  1.515022598284800E+000  1.552443656462500E+000 
 1.590789014777100E+000  1.630081503442100E+000  1.670344516577100E+000  1.711602026136600E+000 
 1.753878596182200E+000  1.797199397507800E+000  1.841590222626300E+000  1.887077501125200E+000 
 1.933688315403000E+000  1.981450416793400E+000  2.030392242088200E+000  2.080542930467800E+000 
 2.131932340850300E+000  2.184591069669300E+000  2.238550469090200E+000  2.293842665676700E+000 
 2.350500579518900E+000  2.408557943833000E+000  2.468049325045700E+000  2.529010143374300E+000 
 2.591476693915700E+000  2.655486168255400E+000  2.721076676611300E+000  2.788287270523600E+000 
 2.857157966105500E+000  2.927729767868300E+000  3.000044693134700E+000  3.074145797055100E+000 
 3.150077198242400E+000  3.227884105039000E+000  3.307612842433400E+000  3.389310879641500E+000 
 3.473026858368700E+000  3.558810621770400E+000  3.646713244128100E+000  3.736787061258100E+000 
 3.829085701671200E+000  3.923664118502400E+000  4.020578622229400E+000  4.119886914198500E+000 
 4.221648120979200E+000  4.325922829567400E+000  4.432773123457700E+000  4.542262619607100E+000 
 4.654456506311400E+000  4.769421582017300E+000  4.887226295093100E+000  5.007940784581900E+000 
 5.131636921961100E+000  5.258388353933500E+000  5.388270546275700E+000  5.521360828768700E+000 
 5.657738441239300E+000  5.797484580737900E+000  5.940682449882100E+000  6.087417306394200E+000 
 6.237776513862200E+000  6.391849593754600E+000  6.549728278720300E+000  6.711506567204700E+000 
 6.877280779414600E+000  7.047149614666200E+000  7.221214210148400E+000  7.399578201139100E+000 
 7.582347782707200E+000  7.769631772940100E+000  7.961541677731700E+000  8.158191757171700E+000 
 8.359699093573800E+000  8.566183661185100E+000  8.777768397616400E+000  8.994579277037500E+000 
 9.216745385180300E+000  9.444398996194300E+000  9.677675651400300E+000  9.916714239989901E+000 
 1.016165708171800E+001  1.041265001163600E+001  1.066984246692300E+001  1.093338757585600E+001 
 1.120344224898000E+001  1.148016727253000E+001  1.176372740416100E+001  1.205429147104400E+001 
 1.235203247037900E+001  1.265712767239700E+001  1.296975872590600E+001  1.329011176643500E+001 
 1.361837752706600E+001  1.395475145198500E+001  1.429943381284900E+001  1.465262982802600E+001 
 1.501454978477900E+001  1.538540916446300E+001  1.576542877082500E+001  1.615483486146400E+001 
 1.655385928254200E+001  1.696273960682100E+001  1.738171927511000E+001  1.781104774120500E+001 
 1.825098062041300E+001  1.870177984173700E+001  1.916371380382800E+001  1.963705753478200E+001 
 2.012209285589100E+001  2.061910854943200E+001  2.112840053060300E+001  2.165027202370900E+001 
 2.218503374269400E+001  2.273300407613900E+001  2.329450927682000E+001  2.386988365595700E+001 
 2.445946978225900E+001  2.506361868588100E+001  2.568269006742200E+001  2.631705251208700E+001 
 2.696708370913600E+001  2.763317067675200E+001  2.831570999246700E+001  2.901510802928100E+001 
 2.973178119760500E+001  3.046615619318500E+001  3.121867025115700E+001  3.198977140636100E+001 
 3.277991876009800E+001  3.358958275347200E+001  3.441924544748300E+001  3.526940081003600E+001 
 3.614055501004400E+001  3.703322671879200E+001  3.794794741874600E+001  3.888526171998900E+001 
 3.984572768447300E+001  4.082991715827900E+001  4.183841611208900E+001  4.287182499005700E+001 
 4.393075906731200E+001  4.501584881627400E+001  4.612774028203600E+001  4.726709546700300E+001 
 4.843459272503800E+001  4.963092716534600E+001  5.085681106633000E+001  5.211297429966800E+001 
 5.340016476487000E+001  5.471914883456200E+001  5.607071181077600E+001  5.745565839250200E+001 
 5.887481315479700E+001  6.032902103972100E+001  6.181914785940200E+001  6.334608081152900E+001 
 6.491072900757401E+001  6.651402401406099E+001  6.815692040720801E+001  6.984039634126600E+001 
 7.156545413089501E+001  7.333312084792800E+001  7.514444893287200E+001  7.700051682151400E+001 
 7.890242958700600E+001
    </PP_R>
    <PP_RAB type="real" size="553" columns="4">
 2.723201654412332E-006  2.790464735276284E-006  2.859389214237680E-006  2.930016127829426E-006 
 3.002387526186711E-006  3.076546498083493E-006  3.152537196586293E-006  3.230404865341898E-006 
 3.310195865515822E-006  3.391957703394177E-006  3.475739058668032E-006  3.561589813417058E-006 
 3.649561081808340E-006  3.739705240529131E-006  3.832075959970162E-006  3.926728236181427E-006 
 4.023718423615140E-006  4.123104268678491E-006  4.224944944114805E-006  4.329301084234537E-006 
 4.436234821014902E-006  4.545809821094007E-006  4.658091323675104E-006  4.773146179369985E-006 
 4.891042890000323E-006  5.011851649383301E-006  5.135644385123012E-006  5.262494801435670E-006 
 5.392478423031100E-006  5.525672640080025E-006  5.662156754289831E-006  5.802012026120791E-006 
 5.945321723166161E-006  6.092171169728357E-006  6.242647797620494E-006  6.396841198221841E-006 
 6.554843175817918E-006  6.716747802260645E-006  6.882651472976319E-006  7.052652964359039E-006 
 7.226853492578566E-006  7.405356773845381E-006  7.588269086159211E-006  7.775699332587471E-006 
 7.967759106102340E-006  8.164562756023117E-006  8.366227456096793E-006  8.572873274262445E-006 
 8.784623244136563E-006  9.001603438266873E-006  9.223943043192010E-006  9.451774436358981E-006 
 9.685233264937000E-006  9.924458526580871E-006  1.016959265218734E-005  1.042078159069644E-005 
 1.067817489598677E-005  1.094192581591755E-005  1.121219138357075E-005  1.148913251074490E-005 
 1.177291408376023E-005  1.206370506162922E-005  1.236167857665141E-005  1.266701203749472E-005 
 1.297988723482076E-005  1.330049044952084E-005  1.362901256362416E-005  1.396564917394566E-005 
 1.431060070854204E-005  1.466407254604307E-005  1.502627513793017E-005  1.539742413383711E-005 
 1.577774050994300E-005  1.616745070053840E-005  1.656678673284176E-005  1.697598636514307E-005 
 1.739529322836197E-005  1.782495697110244E-005  1.826523340828879E-005  1.871638467347346E-005 
 1.917867937490821E-005  1.965239275546853E-005  2.013780685652865E-005  2.063521068588498E-005 
 2.114490038982631E-005  2.166717942945494E-005  2.220235876136250E-005  2.275075702276823E-005 
 2.331270072123053E-005  2.388852442904500E-005  2.447857098244270E-005  2.508319168570790E-005 
 2.570274652034555E-005  2.633760435939901E-005  2.698814318707580E-005  2.765475032379508E-005 
 2.833782265679346E-005  2.903776687641590E-005  2.975499971826508E-005  3.048994821130438E-005 
 3.124304993212411E-005  3.201475326544703E-005  3.280551767110448E-005  3.361581395758116E-005 
 3.444612456233315E-005  3.529694383902345E-005  3.616877835184559E-005  3.706214717713789E-005 
 3.797758221241302E-005  3.891562849305869E-005  3.987684451683663E-005  4.086180257640428E-005 
 4.187108910003968E-005  4.290530500081114E-005  4.396506603433087E-005  4.505100316538031E-005 
 4.616376294356351E-005  4.730400788827144E-005  4.847241688311106E-005  4.966968558012355E-005 
 5.089652681395294E-005  5.215367102625774E-005  5.344186670060710E-005  5.476188080811074E-005 
 5.611449926406999E-005  5.750052739589458E-005  5.892079042257245E-005  6.037613394601043E-005 
 6.186742445447700E-005  6.339554983850131E-005  6.496141991951385E-005  6.656596699152391E-005 
 6.821014637621456E-005  6.989493699170892E-005  7.162134193540287E-005  7.339038908120851E-005 
 7.520313169151296E-005  7.706064904429460E-005  7.896404707568669E-005  8.091445903845714E-005 
 8.291304617670686E-005  8.496099841727233E-005  8.705953507817863E-005  8.920990559460940E-005 
 9.141339026279586E-005  9.367130100228641E-005  9.598498213704309E-005  9.835581119582865E-005 
 1.007851997323648E-004  1.032745941657547E-004  1.058254766416498E-004  1.084393659146992E-004 
 1.111178182527916E-004  1.138624283636344E-004  1.166748303442162E-004  1.195566986537185E-004 
 1.225097491104655E-004  1.255357399134939E-004  1.286364726893567E-004  1.318137935647840E-004 
 1.350695942658363E-004  1.384058132442015E-004  1.418244368313336E-004  1.453275004210663E-004 
 1.489170896814679E-004  1.525953417966001E-004  1.563644467389746E-004  1.602266485734292E-004 
 1.641842467931929E-004  1.682395976889847E-004  1.723951157519007E-004  1.766532751109739E-004 
 1.810166110062136E-004  1.854877212980689E-004  1.900692680141315E-004  1.947639789340781E-004 
 1.995746492137521E-004  2.045041430493304E-004  2.095553953826489E-004  2.147314136486004E-004 
 2.200352795657201E-004  2.254701509709940E-004  2.310392636999771E-004  2.367459335133671E-004 
 2.425935580711484E-004  2.485856189555154E-004  2.547256837437166E-004  2.610174081321789E-004 
 2.674645381130390E-004  2.740709122044389E-004  2.808404637358932E-004  2.877772231901653E-004 
 2.948853206029475E-004  3.021689880218576E-004  3.096325620259953E-004  3.172804863080355E-004 
 3.251173143198357E-004  3.331477119835309E-004  3.413764604695347E-004  3.498084590431270E-004 
 3.584487279814854E-004  3.673024115626467E-004  3.763747811282294E-004  3.856712382220890E-004 
 3.951973178061986E-004  4.049586915559999E-004  4.149611712374207E-004  4.252107121669987E-004 
 4.357134167575265E-004  4.464755381514387E-004  4.575034839437710E-004  4.688038199971805E-004 
 4.803832743511240E-004  4.922487412275883E-004  5.044072851359070E-004  5.168661450787643E-004 
 5.296327388622153E-004  5.427146675121146E-004  5.561197197996608E-004  5.698558768787171E-004 
 5.839313170376154E-004  5.983544205684476E-004  6.131337747564754E-004  6.282781789929568E-004 
 6.437966500140933E-004  6.596984272694459E-004  6.759929784229855E-004  6.926900049900534E-004 
 7.097994481133023E-004  7.273314944816938E-004  7.452965823953832E-004  7.637054079805662E-004 
 7.825689315576777E-004  8.018983841671426E-004  8.217052742560911E-004  8.420013945302123E-004 
 8.627988289751159E-004  8.841099600507833E-004  9.059474760640444E-004  9.283243787228293E-004 
 9.512539908772778E-004  9.747499644519469E-004  9.988262885739009E-004  1.023497297901686E-003 
 1.048777681159851E-003  1.074682489884498E-003  1.101227147384655E-003  1.128427457925054E-003 
 1.156299616135797E-003  1.184860216654360E-003  1.214126264005725E-003  1.244115182726666E-003 
 1.274844827740000E-003  1.306333494985199E-003  1.338599932311333E-003  1.371663350639406E-003 
 1.405543435400218E-003  1.440260358254584E-003  1.475834789103492E-003  1.512287908394333E-003 
 1.549641419731667E-003  1.587917562799039E-003  1.627139126600181E-003  1.667329463027208E-003 
 1.708512500763993E-003  1.750712759532863E-003  1.793955364693303E-003  1.838266062201230E-003 
 1.883671233937612E-003  1.930197913415871E-003  1.977873801877246E-003  2.026727284783599E-003 
 2.076787448717759E-003  2.128084098701090E-003  2.180647775939001E-003  2.234509776004710E-003 
 2.289702167472023E-003  2.346257811008568E-003  2.404210378940475E-003  2.463594375300297E-003 
 2.524445156370328E-003  2.586798951732503E-003  2.650692885840489E-003  2.716165000120586E-003 
 2.783254275623609E-003  2.852000656231617E-003  2.922445072440486E-003  2.994629465729784E-003 
 3.068596813533124E-003  3.144391154827547E-003  3.222057616351688E-003  3.301642439475667E-003 
 3.383193007730744E-003  3.466757875021690E-003  3.552386794534552E-003  3.640130748359586E-003 
 3.730041977844217E-003  3.822174014696804E-003  3.916581712859965E-003  4.013321281167630E-003 
 4.112450316812410E-003  4.214027839637691E-003  4.318114327276644E-003  4.424771751160351E-003 
 4.534063613414100E-003  4.646054984665494E-003  4.760812542786596E-003  4.878404612593515E-003 
 4.998901206524439E-003  5.122374066325615E-003  5.248896705763845E-003  5.378544454396222E-003 
 5.511394502419800E-003  5.647525946629767E-003  5.787019837511461E-003  5.929959227497984E-003 
 6.076429220417057E-003  6.226517022161538E-003  6.380311992608960E-003  6.537905698826216E-003 
 6.699391969587207E-003  6.864866951236139E-003  7.034429164931600E-003  7.208179565305362E-003 
 7.386221600568572E-003  7.568661274102432E-003  7.755607207572897E-003  7.947170705599896E-003 
 8.143465822028156E-003  8.344609427832326E-003  8.550721280699844E-003  8.761924096333022E-003 
 8.978343621512551E-003  9.200108708963923E-003  9.427351394075302E-003  9.660206973508846E-003 
 9.898814085754729E-003  1.014331479367279E-002  1.039385466907645E-002  1.065058287940257E-002 
 1.091365227652387E-002  1.118321948775416E-002  1.145944500910154E-002  1.174249330082640E-002 
 1.203253288535673E-002  1.232973644762503E-002  1.263428093788146E-002  1.294634767704712E-002 
 1.326612246467015E-002  1.359379568954751E-002  1.392956244307928E-002  1.427362263542333E-002 
 1.462618111451825E-002  1.498744778804687E-002  1.535763774841179E-002  1.573697140079743E-002 
 1.612567459439723E-002  1.652397875687884E-002  1.693212103217382E-002  1.735034442166839E-002 
 1.777889792888353E-002  1.821803670772696E-002  1.866802221440782E-002  1.912912236310381E-002 
 1.960161168547252E-002  2.008577149410356E-002  2.058189005000799E-002  2.109026273424313E-002 
 2.161119222377896E-002  2.214498867170640E-002  2.269196989189734E-002  2.325246154822723E-002 
 2.382679734846856E-002  2.441531924297669E-002  2.501837762827662E-002  2.563633155569597E-002 
 2.626954894512089E-002  2.691840680406560E-002  2.758329145212692E-002  2.826459875099467E-002 
 2.896273434014242E-002  2.967811387834485E-002  3.041116329113900E-002  3.116231902443177E-002 
 3.193202830433434E-002  3.272074940345279E-002  3.352895191371785E-002  3.435711702598562E-002 
 3.520573781652647E-002  3.607531954059465E-002  3.696637993324724E-002  3.787944951760003E-002 
 3.881507192068418E-002  3.977380419712521E-002  4.075621716079372E-002  4.176289572466645E-002 
 4.279443924906634E-002  4.385146189851583E-002  4.493459300741057E-002  4.604447745469434E-002 
 4.718177604782549E-002  4.834716591620546E-002  4.954134091433580E-002  5.076501203492042E-002 
 5.201890783218162E-002  5.330377485563644E-002  5.462037809457234E-002  5.596950143350760E-002 
 5.735194811891487E-002  5.876854123745166E-002  6.022012420601732E-002  6.170756127390525E-002 
 6.323173803737205E-002  6.479356196689470E-002  6.639396294747679E-002  6.803389383227949E-002 
 6.971433100993600E-002  7.143627498588127E-002  7.320075097803383E-002  7.500880952719061E-002 
 7.686152712251317E-002  7.876000684243956E-002  8.070537901144627E-002  8.269880187302887E-002 
 8.474146227929402E-002  8.683457639759241E-002  8.897939043461224E-002  9.117718137834804E-002 
 9.342925775839385E-002  9.573696042502425E-002  9.810166334752213E-002  1.005247744322068E-001 
 1.030077363606822E-001  1.055520274487914E-001  1.081591625267762E-001  1.108306938411874E-001 
 1.135682119790648E-001  1.163733468149479E-001  1.192477684812765E-001  1.221931883627640E-001 
 1.252113601153250E-001  1.283040807101725E-001  1.314731915037148E-001  1.347205793338564E-001 
 1.380481776434029E-001  1.414579676311947E-001  1.449519794316846E-001  1.485322933236475E-001 
 1.522010409687432E-001  1.559604066806712E-001  1.598126287256828E-001  1.637600006552074E-001 
 1.678048726713897E-001  1.719496530263744E-001  1.761968094561245E-001  1.805488706496916E-001 
 1.850084277547381E-001  1.895781359202810E-001  1.942607158775114E-001  1.990589555596866E-001 
 2.039757117620099E-001  2.090139118425322E-001  2.141765554650434E-001  2.194667163850293E-001 
 2.248875442797389E-001  2.304422666234496E-001  2.361341906090488E-001  2.419667051170927E-001 
 2.479432827334934E-001  2.540674818170001E-001  2.603429486178700E-001  2.667734194487315E-001 
 2.733627229091238E-001  2.801147821649839E-001  2.870336172844470E-001  2.941233476313783E-001 
 3.013881943178785E-001  3.088324827175213E-001  3.164606450406635E-001  3.242772229731464E-001 
 3.322868703805845E-001  3.404943560789964E-001  3.489045666741469E-001  3.575225094709893E-001 
 3.663533154549412E-001  3.754022423466773E-001  3.846746777326344E-001  3.941761422726213E-001 
 4.039122929867511E-001  4.138889266235291E-001  4.241119831111430E-001  4.345875490939829E-001 
 4.453218615566100E-001  4.563213115370534E-001  4.675924479320209E-001  4.791419813959283E-001 
 4.909767883364050E-001  5.031039150083262E-001  5.155305817090325E-001  5.282641870772483E-001 
 5.413123124980413E-001  5.546827266167542E-001  5.683833899641970E-001  5.824224596963016E-001 
 5.968082944507969E-001  6.115494593237365E-001  6.266547309690265E-001  6.421331028239534E-001 
 6.579937904637161E-001  6.742462370881782E-001  6.909001191442373E-001  7.079653520871015E-001 
 7.254520962836715E-001  7.433707630618576E-001  7.617320209094935E-001  7.805468018259684E-001 
 7.998263078310669E-001  8.195820176344840E-001  8.398256934700616E-001  8.605693880987763E-001 
 8.818254519848188E-001  9.036065406488417E-001  9.259256222028641E-001  9.487959850712743E-001 
 9.722312459025413E-001  9.962453576763224E-001  1.020852618010940E+000  1.046067677675796E+000 
 1.071905549314402E+000  1.098381616382453E+000  1.125511642307101E+000  1.153311779872103E+000 
 1.181798580834945E+000  1.210989005781557E+000  1.240900434224361E+000  1.271550674949694E+000 
 1.302957976620956E+000  1.335141038643487E+000  1.368119022297988E+000  1.401911562148745E+000 
 1.436538777733824E+000  1.472021285543861E+000  1.508380211296792E+000  1.545637202515817E+000 
 1.583814441417964E+000  1.622934658120985E+000  1.663021144176567E+000  1.704097766437727E+000 
 1.746188981268732E+000  1.789319849106067E+000  1.833516049378991E+000  1.878803895798654E+000 
 1.925210352024895E+000
    </PP_RAB>
  </PP_MESH>
  <PP_NLCC type="real" size="553" columns="4">
 1.120110448092637E-001  1.120110448092637E-001  1.120110448092637E-001  1.120110448092637E-001 
 1.120110448092637E-001  1.120110448092637E-001  1.120110448092637E-001  1.120110448092637E-001 
 1.120110448092637E-001  1.120110448092637E-001  1.120110448092637E-001  1.120110448092637E-001 
 1.120110448092637E-001  1.120110448092637E-001  1.120110448092637E-001  1.120110448092637E-001 
 1.120110448092637E-001  1.120110448092637E-001  1.120110448092637E-001  1.120110448092637E-001 
 1.120110448092637E-001  1.120110448092637E-001  1.120110448092637E-001  1.120110448092637E-001 
 1.120110448092637E-001  1.120110448092637E-001  1.120110448092637E-001  1.120110448092637E-001 
 1.120110448092637E-001  1.120110448092637E-001  1.120110448092637E-001  1.120110448092637E-001 
 1.120110448092637E-001  1.120110448092637E-001  1.120110448092637E-001  1.120110448092637E-001 
 1.120110448092637E-001  1.120110448092637E-001  1.120110448092637E-001  1.120110448092637E-001 