<UPF version="2.0.1">
  <PP_INFO>
    Generated using FHI98PP, converted with fhi2upf.x v.5.0.2
    Author: Wenhui Mi
    Generation date: July 22 2018
    Pseudopotential type: SL
    Element: Be
    Functional: PZ

    Suggested minimum cutoff for wavefunctions:   0. Ry
    Suggested minimum cutoff for charge density:   0. Ry
    The Pseudo was generated with a Scalar-Relativistic Calculation
    L component and cutoff radius for Local Potential:  0   0.0000

    Valence configuration: 
    nl pn  l   occ       Rcut    Rcut US       E pseu
    2s  2  0  1.50      0.000      0.000     0.000000
    2p  2  1  0.50      0.000      0.000     0.000000

    Generation configuration: not available.
    Comment:
    Info: automatically converted from FHI format
  </PP_INFO>
  <!--                               -->
  <!-- END OF HUMAN READABLE SECTION -->
  <!--                               -->
  <PP_HEADER generated="Generated using FHI98PP, converted with fhi2upf.x v.5.0.2"
             author="unknown"
             date="unknown"
             comment="Info: automatically converted from FHI format"
             element="Be"
             pseudo_type="SL"
             relativistic="scalar"
             is_ultrasoft="F"
             is_paw="F"
             is_coulomb="F"
             has_so="F"
             has_wfc="F"
             has_gipaw="F"
             paw_as_gipaw="F"
             core_correction="F"
             functional="PZ"
             z_valence="2.000000000000000E+000"
             total_psenergy="0.000000000000000E+000"
             wfc_cutoff="0.000000000000000E+000"
             rho_cutoff="0.000000000000000E+000"
             l_max="1"
             l_max_rho="0"
             l_local="0"
             mesh_size="445"
             number_of_wfc="2"
             number_of_proj="1"/>
  <PP_MESH dx="2.439988682353512E-002" mesh="445" xmin="-Infinity" rmax="7.920833817735000E+001" zmesh="0.000000000000000E+000">
    <PP_R type="real" size="445" columns="4">
 1.562500000000000E-003  1.601093750000000E-003  1.640640765625000E-003  1.681164592535900E-003 
 1.722689357971600E-003  1.765239785113500E-003  1.808841207805800E-003  1.853519585638600E-003 
 1.899301519403900E-003  1.946214266933100E-003  1.994285759326400E-003  2.043544617581700E-003 
 2.094020169636000E-003  2.145742467826000E-003  2.198742306781300E-003  2.253051241758800E-003 
 2.308701607430300E-003  2.365726537133800E-003  2.424159982601000E-003  2.484036734171200E-003 
 2.545392441505300E-003  2.608263634810400E-003  2.672687746590300E-003  2.738703133931000E-003 
 2.806349101339100E-003  2.875665924142200E-003  2.946694872468500E-003  3.019478235818500E-003 
 3.094059348243200E-003  3.170482614144800E-003  3.248793534714200E-003  3.329038735021600E-003 
 3.411265991776700E-003  3.495524261773600E-003  3.581863711039400E-003  3.670335744702000E-003 
 3.760993037596200E-003  3.853889565624800E-003  3.949080637895700E-003  4.046622929651800E-003 
 4.146574516014200E-003  4.248994906559700E-003  4.353945080751700E-003  4.461487524246300E-003 
 4.571686266095200E-003  4.684606916867700E-003  4.800316707714400E-003  4.918884530394900E-003 
 5.040380978295700E-003  5.164878388459600E-003  5.292450884654500E-003  5.423174421505500E-003 
 5.557126829716700E-003  5.694387862410700E-003  5.835039242612200E-003  5.979164711904700E-003 
 6.126850080288800E-003  6.278183277271900E-003  6.433254404220500E-003  6.592155788004800E-003 
 6.754982035968500E-003  6.921830092256900E-003  7.092799295535700E-003  7.267991438135400E-003 
 7.447510826657300E-003  7.631464344075800E-003  7.819961513374401E-003  8.013114562754799E-003 
 8.211038492454800E-003  8.413851143218500E-003  8.621673266455999E-003  8.834628596137400E-003 
 9.052843922462001E-003  9.276449167346800E-003  9.505577461780299E-003  9.740365225086299E-003 
 9.980952246145900E-003  1.022748176662600E-002  1.048010056626100E-002  1.073895905024800E-002 
 1.100421133878900E-002  1.127601535885700E-002  1.155453293822100E-002  1.183992990179500E-002 
 1.213237617036900E-002  1.243204586177800E-002  1.273911739456300E-002  1.305377359420900E-002 
 1.337620180198600E-002  1.370659398649500E-002  1.404514685796200E-002  1.439206198535300E-002 
 1.474754591639100E-002  1.511181030052600E-002  1.548507201494900E-002  1.586755329371900E-002 
 1.625948186007300E-002  1.666109106201700E-002  1.707262001124900E-002  1.749431372552700E-002 
 1.792642327454700E-002  1.836920592942900E-002  1.882292531588600E-002  1.928785157118800E-002 
 1.976426150499600E-002  2.025243876417000E-002  2.075267400164500E-002  2.126526504948500E-002 
 2.179051709620800E-002  2.232874286848400E-002  2.288026281733600E-002  2.344540530892400E-002 
 2.402450682005400E-002  2.461791213851000E-002  2.522597456833100E-002  2.584905614016800E-002 
 2.648752782683100E-002  2.714176976415300E-002  2.781217147732800E-002  2.849913211281800E-002 
 2.920306067600500E-002  2.992437627470200E-002  3.066350836868700E-002  3.142089702539400E-002 
 3.219699318192100E-002  3.299225891351400E-002  3.380716770867800E-002  3.464220475108200E-002 
 3.549786720843400E-002  3.637466452848200E-002  3.727311874233600E-002  3.819376477527200E-002 
 3.913715076522100E-002  4.010383838912200E-002  4.109440319733300E-002  4.210943495630700E-002 
 4.314953799972800E-002  4.421533158832100E-002  4.530745027855300E-002  4.642654430043300E-002 
 4.757327994465400E-002  4.874833995928700E-002  4.995242395628100E-002  5.118624882800100E-002 
 5.245054917405300E-002  5.374607773865200E-002  5.507360585879700E-002  5.643392392350900E-002 
 5.782784184442000E-002  5.925618953797700E-002  6.071981741956500E-002  6.221959690982800E-002 
 6.375642095350099E-002  6.533120455105200E-002  6.694488530346300E-002  6.859842397045900E-002 
 7.029280504252899E-002  7.202903732708001E-002  7.380815454905799E-002  7.563121596642000E-002 
 7.749930700079100E-002  7.941353988371000E-002  8.137505431883800E-002  8.338501816051300E-002 
 8.544462810907801E-002  8.755511042337200E-002  8.971772165082900E-002  9.193374937560500E-002 
 9.420451298518200E-002  9.653136445591599E-002  9.891568915797699E-002  1.013589066801800E-001 
 1.038624716751800E-001  1.064278747255600E-001  1.090566432312800E-001  1.117503423190900E-001 
 1.145105757743700E-001  1.173389869960000E-001  1.202372599748000E-001  1.232071202961800E-001 
 1.262503361674900E-001  1.293687194708300E-001  1.325641268417600E-001  1.358384607747500E-001 
 1.391936707558900E-001  1.426317544235600E-001  1.461547587578200E-001  1.497647812991400E-001 
 1.534639713972300E-001  1.572545314907400E-001  1.611387184185600E-001  1.651188447635000E-001 
 1.691972802291600E-001  1.733764530508200E-001  1.776588514411700E-001  1.820470250717700E-001 
 1.865435865910400E-001  1.911512131798400E-001  1.958726481453800E-001  2.007107025545700E-001 
 2.056682569076700E-001  2.107482628532900E-001  2.159537449457700E-001  2.212878024459300E-001 
 2.267536111663400E-001  2.323544253621500E-001  2.380935796686000E-001  2.439744910864100E-001 
 2.500006610162400E-001  2.561756773433500E-001  2.625032165737300E-001  2.689870460231000E-001 
 2.756310260598700E-001  2.824391124035500E-001  2.894153584799100E-001  2.965639178343700E-001 
 3.038890466048800E-001  3.113951060560200E-001  3.190865651756000E-001  3.269680033354400E-001 
 3.350441130178200E-001  3.433197026093600E-001  3.517996992638100E-001  3.604891518356300E-001 
 3.693932338859700E-001  3.785172467629500E-001  3.878666227580000E-001  3.974469283401200E-001 
 4.072638674701200E-001  4.173232849966300E-001  4.276311701360500E-001  4.381936600384100E-001 
 4.490170434413600E-001  4.601077644143600E-001  4.714724261954000E-001  4.831177951224200E-001 
 4.950508046619500E-001  5.072785595371000E-001  5.198083399576600E-001  5.326476059546200E-001 
 5.458040018217000E-001  5.592853606666900E-001  5.730997090751599E-001  5.872552718893200E-001 
 6.017604771049800E-001  6.166239608894800E-001  6.318545727234500E-001  6.474613806697100E-001 
 6.634536767722600E-001  6.798409825885300E-001  6.966330548584700E-001  7.138398913134700E-001 
 7.314717366289100E-001  7.495390885236500E-001  7.680527040101800E-001  7.870236057992300E-001 
 8.064630888624700E-001  8.263827271573800E-001  8.467943805181700E-001  8.677102017169600E-001 
 8.891426436993700E-001  9.111044669987500E-001  9.336087473336200E-001  9.566688833927600E-001 
 9.802986048125600E-001  1.004511980351400E+000  1.029323426266100E+000  1.054747714894900E+000 
 1.080799983452800E+000  1.107495743044100E+000  1.134850887897300E+000  1.162881704828300E+000 
 1.191604882937600E+000  1.221037523546100E+000  1.251197150377700E+000  1.282101719992100E+000 
 1.313769632475900E+000  1.346219742398000E+000  1.379471370035200E+000  1.413544312875100E+000 
 1.448458857403100E+000  1.484235791181000E+000  1.520896415223200E+000  1.558462556679200E+000 
 1.596956581829100E+000  1.636401409400300E+000  1.676820524212500E+000  1.718237991160600E+000 
 1.760678469542200E+000  1.804167227739900E+000  1.848730158265100E+000  1.894393793174200E+000 
 1.941185319865600E+000  1.989132597266300E+000  2.038264172418800E+000  2.088609297477600E+000 
 2.140197947125200E+000  2.193060836419200E+000  2.247229439078800E+000  2.302736006224000E+000 
 2.359613585577800E+000  2.417896041141500E+000  2.477618073357700E+000  2.538815239769700E+000 
 2.601523976192000E+000  2.665781618403900E+000  2.731626424378500E+000  2.799097597060700E+000 
 2.868235307708100E+000  2.939080719808400E+000  3.011676013587700E+000  3.086064411123300E+000 
 3.162290202078100E+000  3.240398770069400E+000  3.320436619690100E+000  3.402451404196500E+000 
 3.486491953880100E+000  3.572608305141000E+000  3.660851730277900E+000  3.751274768015800E+000 
 3.843931254785800E+000  3.938876356779000E+000  4.036166602791400E+000  4.135859917880400E+000 
 4.238015657852000E+000  4.342694644601000E+000  4.449959202322600E+000  4.559873194620000E+000 
 4.672502062527100E+000  4.787912863471500E+000  4.906174311199300E+000  5.027356816685900E+000 
 5.151532530058000E+000  5.278775383550500E+000  5.409161135524200E+000  5.542767415571600E+000 
 5.679673770736200E+000  5.819961712873400E+000  5.963714767181400E+000  6.111018521930800E+000 
 6.261960679422400E+000  6.416631108204200E+000  6.575121896576800E+000  6.737527407422300E+000 
 6.903944334385600E+000  7.074471759444900E+000  7.249211211903200E+000  7.428266728837200E+000 
 7.611744917039500E+000  7.799755016490400E+000  7.992408965397700E+000  8.189821466843000E+000 
 8.392110057073999E+000  8.599395175483799E+000  8.811800236318200E+000  9.029451702155299E+000 
 9.252479159198501E+000  9.481015394430701E+000  9.715196474673100E+000  9.955161827597600E+000 
 1.020105432473900E+001  1.045302036656000E+001  1.071120996961400E+001  1.097577685586400E+001 
 1.124687854420400E+001  1.152467644424500E+001  1.180933595241800E+001  1.210102655044300E+001 
 1.239992190623900E+001  1.270619997732300E+001  1.302004311676300E+001  1.334163818174700E+001 
 1.367117664483600E+001  1.400885470796400E+001  1.435487341925000E+001  1.470943879270600E+001 
 1.507276193088600E+001  1.544505915057900E+001  1.582655211159800E+001  1.621746794875400E+001 
 1.661803940708900E+001  1.702850498044400E+001  1.744910905346100E+001  1.788010204708100E+001 
 1.832174056764400E+001  1.877428755966500E+001  1.923801246238800E+001  1.971319137020900E+001 
 2.020010719705400E+001  2.069904984482100E+001  2.121031637598800E+001  2.173421119047500E+001 
 2.227104620688000E+001  2.282114104818900E+001  2.338482323208000E+001  2.396242836591200E+001 
 2.455430034655000E+001  2.516079156511000E+001  2.578226311676800E+001  2.641908501575200E+001 
 2.707163641564100E+001  2.774030583510800E+001  2.842549138923500E+001  2.912760102654900E+001 
 2.984705277190500E+001  3.058427497537100E+001  3.133970656726200E+001  3.211379731947400E+001 
 3.290700811326500E+001  3.371981121366200E+001  3.455269055064000E+001  3.540614200724100E+001 
 3.628067371482000E+001  3.717680635557600E+001  3.809507347255800E+001  3.903602178733100E+001 
 4.000021152547800E+001  4.098821675015700E+001  4.200062570388600E+001  4.303804115877200E+001 
 4.410108077539300E+001  4.519037747054600E+001  4.630657979406800E+001  4.745035231498200E+001 
 4.862237601716200E+001  4.982334870478500E+001  5.105398541779400E+001  5.231501885761300E+001 
 5.360719982339600E+001  5.493129765903400E+001  5.628810071121200E+001  5.767841679877900E+001 
 5.910307369370900E+001  6.056291961394400E+001  6.205882372840800E+001  6.359167667450000E+001 
 6.516239108836000E+001  6.677190214824201E+001  6.842116813130400E+001  7.011117098414699E+001 
 7.184291690745600E+001  7.361743695507000E+001  7.543578764786000E+001  7.729905160276201E+001 
 7.920833817735000E+001
    </PP_R>
    <PP_RAB type="real" size="445" columns="4">
 3.812482316177363E-005  3.906650629386944E-005  4.003144899932801E-005  4.102022578961050E-005 
 4.203342536661542E-005  4.307165097317086E-005  4.413552075220809E-005  4.522566811478756E-005 
 4.634274211722346E-005  4.748740784751701E-005  4.866034682135196E-005  4.986225738783785E-005 
 5.109385514531821E-005  5.235587336740736E-005  5.364906343958226E-005  5.497419530653998E-005 
 5.633205793061293E-005  5.772345976149838E-005  5.914922921760727E-005  6.061021517928108E-005 
 6.210728749421106E-005  6.364133749531610E-005  6.521327853145243E-005  6.682404651117735E-005 
 6.847460046000353E-005  7.016592309136622E-005  7.189902139172266E-005  7.367492722009889E-005 
 7.549469792243492E-005  7.735941696111890E-005  7.927019456005910E-005  8.122816836569156E-005 
 8.323450412432576E-005  8.529039637619699E-005  8.739706916668886E-005  8.955577677510430E-005 
 9.176780446145084E-005  9.403446923164806E-005  9.635712062166896E-005  9.873714150102604E-005 
 1.011759488961014E-004  1.036749948338339E-004  1.062357672062290E-004  1.088597906562236E-004 
 1.115486274854328E-004  1.143038785843217E-004  1.171271843853561E-004  1.200202258396733E-004 
 1.229847254179143E-004  1.260224481357367E-004  1.291352026046881E-004  1.323248421090248E-004 
 1.355932657091180E-004  1.389424193721332E-004  1.423742971306238E-004  1.458909422697496E-004 
 1.494944485438138E-004  1.531869614228452E-004  1.569706793699891E-004  1.608478551504291E-004 
 1.648207971726443E-004  1.688918708628080E-004  1.730635000731207E-004  1.773381685249260E-004 
 1.817184212874906E-004  1.862068662932932E-004  1.908061758907358E-004  1.955190884352382E-004 
 2.003484099195875E-004  2.052970156446030E-004  2.103678519310247E-004  2.155639378737195E-004 
 2.208883671392006E-004  2.263443098075386E-004  2.319350142597856E-004  2.376638091120029E-004 
 2.435341051970686E-004  2.495493975954434E-004  2.557132677160347E-004  2.620293854286294E-004 
 2.685015112487135E-004  2.751334985765545E-004  2.819292959914011E-004  2.888929496023873E-004 
 2.960286054575581E-004  3.033405120123814E-004  3.108330226590648E-004  3.185105983187509E-004 
 3.263778100972249E-004  3.344393420066251E-004  3.426999937542027E-004  3.511646835999154E-004 
 3.598384512848279E-004  3.687264610315666E-004  3.778340046190465E-004  3.871665045331555E-004 
 3.967295171951035E-004  4.065287362698274E-004  4.165699960556965E-004  4.268592749582759E-004 
 4.374026990497327E-004  4.482065457162778E-004  4.592772473954724E-004  4.706213954061313E-004 
 4.822457438726544E-004  4.941572137463234E-004  5.063628969258577E-004  5.188700604799111E-004 
 5.316861509737824E-004  5.448187989028266E-004  5.582758232357372E-004  5.720652360696551E-004 
 5.861952474005653E-004  6.006742700113755E-004  6.155109244806516E-004  6.307140443153048E-004 
 6.462926812099136E-004  6.622561104357808E-004  6.786138363635548E-004  6.953755981217346E-004 
 7.125513753953511E-004  7.301513943676083E-004  7.481861338084849E-004  7.666663313135650E-004 
 7.856029896970043E-004  8.050073835425093E-004  8.248910659160143E-004  8.452658752441314E-004 
 8.661439423626683E-004  8.875376977390183E-004  9.094598788731841E-004  9.319235378813591E-004 
 9.549420492670234E-004  9.785291178839200E-004  1.002698787095645E-003  1.027465447136904E-003 
 1.052843843681191E-003  1.078849086620110E-003  1.105496659059638E-003  1.132802426538405E-003 
 1.160782646473911E-003  1.189453977841818E-003  1.218833491094501E-003  1.248938678324532E-003 
 1.279787463679157E-003  1.311398214032029E-003  1.343789749918628E-003  1.376981356741611E-003 
 1.410992796253136E-003  1.445844318320585E-003  1.481556672983102E-003  1.518151122805779E-003 
 1.555649455539087E-003  1.594073997090892E-003  1.633447624819037E-003  1.673793781152078E-003 
 1.715136487546526E-003  1.757500358788939E-003  1.800910617651004E-003  1.845393109906990E-003 
 1.890974319721703E-003  1.937681385418816E-003  1.985542115638670E-003  2.034585005894938E-003 
 2.084839255540551E-003  2.136334785152397E-003  2.189102254345654E-003  2.243173080028005E-003 
 2.298579455104686E-003  2.355354367645771E-003  2.413531620526619E-003  2.473145851553650E-003 
 2.534232554087014E-003  2.596828098173038E-003  2.660969752197880E-003  2.726695705077103E-003 
 2.794045088992471E-003  2.863058002690659E-003  2.933775535357089E-003  3.006239791080469E-003 
 3.080493913920019E-003  3.156582113593917E-003  3.234549691799698E-003  3.314443069187115E-003 
 3.396309812996127E-003  3.480198665377119E-003  3.566159572411886E-003  3.654243713850505E-003 
 3.744503533582643E-003  3.836992770862096E-003  3.931766492302358E-003  4.028881124662265E-003 
 4.128394488441461E-003  4.230365832305958E-003  4.334855868363787E-003  4.441926808312449E-003 
 4.551642400477700E-003  4.664067967769530E-003  4.779270446573388E-003  4.897318426603729E-003 
 5.018282191740893E-003  5.142233761876907E-003  5.269246935795358E-003  5.399397335109490E-003 
 5.532762449286585E-003  5.669421681783999E-003  5.809456397324183E-003  5.952949970337983E-003 
 6.099987834605225E-003  6.250657534120191E-003  6.405048775212941E-003  6.563253479960673E-003 
 6.725365840915687E-003  6.891482377186335E-003  7.061701991902650E-003  7.236126031102797E-003 
 7.414858344071061E-003  7.598005345169604E-003  7.785676077195203E-003  7.977982276301990E-003 
 8.175038438526518E-003  8.376961887958119E-003  8.583872846590656E-003  8.795894505901540E-003 
 9.013153100197306E-003  9.235777981772096E-003  9.463901697921991E-003  9.697660069860602E-003 
 9.937192273586136E-003  1.018264092274366E-002  1.043415215353551E-002  1.069187571172783E-002 
 1.095596504180754E-002  1.122657737834015E-002  1.150387383958527E-002  1.178801952342287E-002 
 1.207918360565157E-002  1.237753944071116E-002  1.268326466489657E-002  1.299654130211966E-002 
 1.331755587228204E-002  1.364649950232726E-002  1.398356804003481E-002  1.432896217062376E-002 
 1.468288753623801E-002  1.504555485838326E-002  1.541718006338532E-002  1.579798441095072E-002 
 1.618819462590140E-002  1.658804303316104E-002  1.699776769608020E-002  1.741761255817328E-002 
 1.784782758836009E-002  1.828866892979273E-002  1.874039905235851E-002  1.920328690895173E-002 
 1.967760809560281E-002  2.016364501556438E-002  2.066168704744888E-002  2.117203071752066E-002 
 2.169497987624344E-002  2.223084587918679E-002  2.277994777240272E-002  2.334261248238106E-002 
 2.391917501069585E-002  2.450997863345929E-002  2.511537510570624E-002  2.573572487081785E-002 
 2.637139727512695E-002  2.702277078782297E-002  2.769023322628246E-002  2.837418198697009E-002 
 2.907502428204926E-002  2.979317738181444E-002  3.052906886314553E-002  3.128313686406696E-002 
 3.205583034460929E-002  3.284760935411980E-002  3.365894530516582E-002  3.449032125420416E-002 
 3.534223218918264E-002  3.621518532425651E-002  3.710970040176636E-002  3.802631000168967E-002 
 3.896555985872954E-002  3.992800918724068E-002  4.091423101416584E-002  4.192481252021698E-002 
 4.296035538946471E-002  4.402147616758467E-002  4.510880662892461E-002  4.622299415265788E-002 
 4.736470210822846E-002  4.853461025030219E-002  4.973341512348520E-002  5.096183047703663E-002 
 5.222058768981708E-002  5.351043620575575E-002  5.483214398003903E-002  5.618649793634486E-002 
 5.757430443537422E-002  5.899638975492622E-002  6.045360058187302E-002  6.194680451624687E-002 
 6.347689058779787E-002  6.504476978531545E-002  6.665137559901331E-002  6.829766457631020E-002 
 6.998461689134508E-002  7.171323692855910E-002  7.348455388069530E-002  7.529962236154808E-002 
 7.715952303387964E-002  7.906536325281577E-002  8.101827772515997E-002  8.301942918497275E-002 
 8.507000908584027E-002  8.717123831026202E-002  8.932436789652348E-002  9.153067978356848E-002 
 9.379148757422287E-002  9.610813731730596E-002  9.848200830904238E-002  1.009145139142770E-001 
 1.034071024079586E-001  1.059612578374365E-001  1.085785009060201E-001  1.112603898783995E-001 
 1.140085215083957E-001  1.168245319896526E-001  1.197100979297983E-001  1.226669373486638E-001 
 1.256968107011747E-001  1.288015219254954E-001  1.319829195170552E-001  1.352428976291253E-001 
 1.385833972005643E-001  1.420064071114186E-001  1.455139653670713E-001  1.491081603116384E-001 
 1.527911318713337E-001  1.565650728285572E-001  1.604322301274215E-001  1.643949062115701E-001 
 1.684554603949951E-001  1.726163102667509E-001  1.768799331303400E-001  1.812488674786591E-001 
 1.857257145053825E-001  1.903131396536661E-001  1.950138742031113E-001  1.998307168959276E-001 
 2.047665356032564E-001  2.098242690326587E-001  2.150069284777641E-001  2.203175996111658E-001 
 2.257594443215608E-001  2.313357025963033E-001  2.370496944504310E-001  2.429048219033585E-001 
 2.489045710043651E-001  2.550525139081716E-001  2.613523110017026E-001  2.678077130834577E-001 
 2.744225635966230E-001  2.812008009174392E-001  2.881464607001035E-001  2.952636782794028E-001 
 3.025566911329055E-001  3.100298414038857E-001  3.176875784865647E-001  3.255344616751817E-001 
 3.335751628785550E-001  3.418144694016688E-001  3.502572867958726E-001  3.589086417797435E-001 
 3.677736852317071E-001  3.768576952569331E-001  3.861660803297720E-001  3.957043825139058E-001 
 4.054782807620183E-001  4.154935942968378E-001  4.257562860759705E-001  4.362724663420350E-001 
 4.470483962606857E-001  4.580904916483294E-001  4.694053267920254E-001  4.809996383637888E-001 
 4.928803294313948E-001  5.050544735683447E-001  5.175293190654808E-001  5.303122932464006E-001 
 5.434110068895932E-001  5.568332587597432E-001  5.705870402511267E-001  5.846805401453204E-001 
 5.991221494869092E-001  6.139204665792410E-001  6.290843021037431E-001  6.446226843657014E-001 
 6.605448646695323E-001  6.768603228268861E-001  6.935787728007061E-001  7.107101684888810E-001 
 7.282647096505622E-001  7.462528479789298E-001  7.646852933239932E-001  7.835730200691112E-001 
 8.029272736648180E-001  8.227595773243233E-001  8.430817388842474E-001  8.639058578346931E-001 
 8.852443325232134E-001  9.071098675365356E-001  9.295154812646702E-001  9.524745136519276E-001 
 9.760006341391284E-001  1.000107849802357E+000  1.024810513692479E+000  1.050123333380683E+000 
 1.076061379715170E+000  1.102640095794154E+000  1.129875306160258E+000  1.157783226222429E+000 
 1.186380471910121E+000  1.215684069566279E+000  1.245711466084586E+000  1.276480539296863E+000 
 1.308009608617494E+000  1.340317445950349E+000  1.373423286865320E+000  1.407346842050894E+000 
 1.442108309049555E+000  1.477728384283089E+000  1.514228275374871E+000  1.551629713776638E+000 
 1.589954967706918E+000  1.629226855409267E+000  1.669468758737886E+000  1.710704637078706E+000 
 1.752959041614564E+000  1.796257129942440E+000  1.840624681052013E+000  1.886088110673994E+000 
 1.932674487007636E+000
    </PP_RAB>
  </PP_MESH>
  <PP_LOCAL type="real" size="445" columns="4">
-1.067956025347600E+000 -1.067956892374000E+000 -1.067957783999540E+000 -1.067958701906620E+000 
-1.067959647851020E+000 -1.067960623665100E+000 -1.067961631262940E+000 -1.067962672644200E+000 
-1.067963749898560E+000 -1.067964865210680E+000 -1.067966020864940E+000 -1.067967219250820E+000 
-1.067968462868340E+000 -1.067969754333720E+000 -1.067971096385500E+000 -1.067972491890900E+000 
-1.067973943852260E+000 -1.067975455414220E+000 -1.067977029870840E+000 -1.067978670673420E+000 
-1.067980381438400E+000 -1.067982165955940E+000 -1.067984028198600E+000 -1.067985972330800E+000 
-1.067988002718500E+000 -1.067990123939380E+000 -1.067992340793760E+000 -1.067994658315660E+000 
-1.067997081784820E+000 -1.067999616739020E+000 -1.068002268987200E+000 -1.068005044623060E+000 
-1.068007950039520E+000 -1.068010991943800E+000 -1.068014177373180E+000 -1.068017513711740E+000 
-1.068021008707760E+000 -1.068024670492020E+000 -1.068028507597060E+000 -1.068032528977480E+000 
-1.068036744030940E+000 -1.068041162620600E+000 -1.068045795098360E+000 -1.068050652329500E+000 
-1.068055745718400E+000 -1.068061087235540E+000 -1.068066689445920E+000 -1.068072565538900E+000 
-1.068078729359400E+000 -1.068085195440880E+000 -1.068091979039700E+000 -1.068099096171400E+000 
-1.068106563648700E+000 -1.068114399121420E+000 -1.068122621118320E+000 -1.068131249091180E+000 
-1.068140303460960E+000 -1.068149805666180E+000 -1.068159778213960E+000 -1.068170244733400E+000 
-1.068181230031660E+000 -1.068192760152880E+000 -1.068204862439980E+000 -1.068217565599660E+000 
-1.068230899770460E+000 -1.068244896594400E+000 -1.068259589291860E+000 -1.068275012740760E+000 
-1.068291203559060E+000 -1.068308200191820E+000 -1.068326043002260E+000 -1.068344774367720E+000 
-1.068364438779980E+000 -1.068385082950920E+000 -1.068406755923240E+000 -1.068429509186720E+000 
-1.068453396800340E+000 -1.068478475520360E+000 -1.068504804934760E+000 -1.068532447604500E+000 
-1.068561469211680E+000 -1.068591938714940E+000 -1.068623928512920E+000 -1.068657514615400E+000 
-1.068692776823220E+000 -1.068729798917080E+000 -1.068768668855460E+000 -1.068809478982700E+000 
-1.068852326247060E+000 -1.068897312429700E+000 -1.068944544385020E+000 -1.068994134292780E+000 
-1.069046199922680E+000 -1.069100864912040E+000 -1.069158259057140E+000 -1.069218518618840E+000 
-1.069281786643420E+000 -1.069348213299020E+000 -1.069417956228720E+000 -1.069491180920840E+000 
-1.069568061097660E+000 -1.069648779122780E+000 -1.069733526428800E+000 -1.069822503965760E+000 
-1.069915922671440E+000 -1.070014003964660E+000 -1.070116980262600E+000 -1.070225095523300E+000 
-1.070338605814520E+000 -1.070457779910180E+000 -1.070582899915680E+000 -1.070714261923460E+000 
-1.070852176700360E+000 -1.070996970407720E+000 -1.071148985356600E+000 -1.071308580798840E+000 
-1.071476133756220E+000 -1.071652039889180E+000 -1.071836714406940E+000 -1.072030593020940E+000 
-1.072234132943340E+000 -1.072447813933080E+000 -1.072672139390780E+000 -1.072907637505480E+000 
-1.073154862454920E+000 -1.073414395661940E+000 -1.073686847109120E+000 -1.073972856714620E+000 
-1.074273095771180E+000 -1.074588268451380E+000 -1.074919113381600E+000 -1.075266405287700E+000 
-1.075630956715080E+000 -1.076013619825960E+000 -1.076415288277500E+000 -1.076836899182780E+000 
-1.077279435158880E+000 -1.077743926464380E+000 -1.078231453230020E+000 -1.078743147785540E+000 
-1.079280197085940E+000 -1.079843845240800E+000 -1.080435396149460E+000 -1.081056216245760E+000 
-1.081707737355320E+000 -1.082391459668760E+000 -1.083108954833820E+000 -1.083861869169460E+000 
-1.084651927004820E+000 -1.085480934145740E+000 -1.086350781471400E+000 -1.087263448663120E+000 
-1.088221008067940E+000 -1.089225628697520E+000 -1.090279580364880E+000 -1.091385237958600E+000 
-1.092545085855640E+000 -1.093761722471680E+000 -1.095037864948640E+000 -1.096376353976780E+000 
-1.097780158749300E+000 -1.099252382045360E+000 -1.100796265436820E+000 -1.102415194612420E+000 
-1.104112704812100E+000 -1.105892486362260E+000 -1.107758390301360E+000 -1.109714434082640E+000 
-1.111764807339960E+000 -1.113913877698700E+000 -1.116166196612600E+000 -1.118526505203800E+000 
-1.120999740080420E+000 -1.123591039102560E+000 -1.126305747064480E+000 -1.129149421255440E+000 
-1.132127836859280E+000 -1.135246992145980E+000 -1.138513113405120E+000 -1.141932659564440E+000 
-1.145512326431900E+000 -1.149259050492240E+000 -1.153180012183240E+000 -1.157282638569120E+000 
-1.161574605321160E+000 -1.166063837907400E+000 -1.170758511885100E+000 -1.175667052180060E+000 
-1.180798131228220E+000 -1.186160665845180E+000 -1.191763812678260E+000 -1.197616962087160E+000 
-1.203729730286520E+000 -1.210111949575360E+000 -1.216773656465000E+000 -1.223725077508740E+000 
-1.230976612624540E+000 -1.238538815692360E+000 -1.246422372198040E+000 -1.254638073686940E+000 
-1.263196788782440E+000 -1.272109430517940E+000 -1.281386919725840E+000 -1.291040144223860E+000 
-1.301079913538120E+000 -1.311516908904100E+000 -1.322361628291440E+000 -1.333624326207220E+000 
-1.345314948044300E+000 -1.357443058758880E+000 -1.370017765683960E+000 -1.383047635312600E+000 
-1.396540603920740E+000 -1.410503881940000E+000 -1.424943852041080E+000 -1.439865960945280E+000 
-1.455274605050440E+000 -1.471173010032960E+000 -1.487563104676000E+000 -1.504445389272100E+000 
-1.521818799061100E+000 -1.539680563285020E+000 -1.558026060581600E+000 -1.576848671586380E+000 
-1.596139629782340E+000 -1.615887871813880E+000 -1.636079888683400E+000 -1.656699579459640E+000 
-1.677728109361780E+000 -1.699143774331140E+000 -1.720921874473280E+000 -1.743034599039900E+000 
-1.765450925928140E+000 -1.788136539000760E+000 -1.811053766878300E+000 -1.834161547214880E+000 
-1.857415420850180E+000 -1.880767560618780E+000 -1.904166839994260E+000 -1.927558947139580E+000 
-1.950886550317520E+000 -1.974089520961800E+000 -1.997105221014960E+000 -2.019868861358000E+000 
-2.042313938266600E+000 -2.064372754776400E+000 -2.085977033567800E+000 -2.107058627428200E+000 
-2.127550332411600E+000 -2.147386807417200E+000 -2.166505601903600E+000 -2.184848290736000E+000 
-2.202361711555800E+000 -2.218999295432200E+000 -2.234722475713000E+000 -2.249502152801000E+000 