<UPF version="2.0.1">
  <PP_INFO>
    Generated using FHI98PP, converted with fhi2upf.x v.5.0.2
    Author: Wenhui Mi
    Generation date: July 22 2018
    Pseudopotential type: SL
    Element: Br
    Functional: PZ

    Suggested minimum cutoff for wavefunctions:   0. Ry
    Suggested minimum cutoff for charge density:   0. Ry
    The Pseudo was generated with a Scalar-Relativistic Calculation
    L component and cutoff radius for Local Potential:  0   0.0000

    Valence configuration: 
    nl pn  l   occ       Rcut    Rcut US       E pseu
    4s  4  0  2.00      0.000      0.000     0.000000
    4p  4  1  5.00      0.000      0.000     0.000000
    4d  4  2  0.00      0.000      0.000     0.000000

    Generation configuration: not available.
    Comment:
    Info: automatically converted from FHI format
  </PP_INFO>
  <!--                               -->
  <!-- END OF HUMAN READABLE SECTION -->
  <!--                               -->
  <PP_HEADER generated="Generated using FHI98PP, converted with fhi2upf.x v.5.0.2"
             author="unknown"
             date="unknown"
             comment="Info: automatically converted from FHI format"
             element="Br"
             pseudo_type="SL"
             relativistic="scalar"
             is_ultrasoft="F"
             is_paw="F"
             is_coulomb="F"
             has_so="F"
             has_wfc="F"
             has_gipaw="F"
             paw_as_gipaw="F"
             core_correction="F"
             functional="PZ"
             z_valence="7.000000000000000E+000"
             total_psenergy="0.000000000000000E+000"
             wfc_cutoff="0.000000000000000E+000"
             rho_cutoff="0.000000000000000E+000"
             l_max="2"
             l_max_rho="0"
             l_local="0"
             mesh_size="533"
             number_of_wfc="3"
             number_of_proj="2"/>
  <PP_MESH dx="2.439988682353512E-002" mesh="533" xmin="-Infinity" rmax="7.749534836006001E+001" zmesh="0.000000000000000E+000">
    <PP_R type="real" size="533" columns="4">
 1.785714285714300E-004  1.829821428571400E-004  1.875018017857100E-004  1.921330962898200E-004 
 1.968787837681800E-004  2.017416897272500E-004  2.067247094635200E-004  2.118308097872700E-004 
 2.170630307890100E-004  2.224244876495000E-004  2.279183724944400E-004  2.335479562950600E-004 
 2.393165908155400E-004  2.452277106086900E-004  2.512848350607200E-004  2.574915704867200E-004 
 2.638516122777400E-004  2.703687471010000E-004  2.770468551544000E-004  2.838899124767100E-004 
 2.909019933148900E-004  2.980872725497600E-004  3.054500281817400E-004  3.129946438778300E-004 
 3.207256115816200E-004  3.286475341876800E-004  3.367651282821200E-004  3.450832269506900E-004 
 3.536067826563700E-004  3.623408701879800E-004  3.712906896816200E-004  3.804615697167600E-004 
 3.898589704887600E-004  3.994884870598300E-004  4.093558526902100E-004  4.194669422516600E-004 
 4.298277757252800E-004  4.404445217856900E-004  4.513235014738000E-004  4.624711919602000E-004 
 4.738942304016200E-004  4.855994178925400E-004  4.975937235144800E-004  5.098842884852900E-004 
 5.224784304108801E-004  5.353836476420300E-004  5.486076237387800E-004  5.621582320451300E-004 
 5.760435403766500E-004  5.902718158239500E-004  6.048515296748000E-004  6.197913624577700E-004 
 6.351002091104800E-004  6.507871842755000E-004  6.668616277271100E-004  6.833331099319700E-004 
 7.002114377472900E-004  7.175066602596500E-004  7.352290747680600E-004  7.533892329148300E-004 
 7.719979469678300E-004  7.910662962579300E-004  8.106056337755000E-004  8.306275929297600E-004 
 8.511440944751200E-004  8.721673536086600E-004  8.937098872427900E-004  9.157845214576900E-004 
 9.384043991376900E-004  9.615829877964000E-004  9.853340875949699E-004  1.009671839558600E-003 
 1.034610733995700E-003  1.060165619125400E-003  1.086351709917700E-003  1.113184597152700E-003 
 1.140680256702400E-003  1.168855059042900E-003  1.197725779001300E-003  1.227309605742600E-003 
 1.257624153004500E-003  1.288687469583700E-003  1.320518050082400E-003  1.353134845919400E-003 
 1.386557276613600E-003  1.420805241346000E-003  1.455899130807200E-003  1.491859839338200E-003 
 1.528708777369800E-003  1.566467884170900E-003  1.605159640909900E-003  1.644807084040400E-003 
 1.685433819016200E-003  1.727064034345900E-003  1.769722515994200E-003  1.813434662139300E-003 
 1.858226498294100E-003  1.904124692802000E-003  1.951156572714200E-003  1.999350140060200E-003 
 2.048734088519700E-003  2.099337820506100E-003  2.151191464672600E-003  2.204325893850100E-003 
 2.258772743428200E-003  2.314564430190800E-003  2.371734171616500E-003  2.430316005655500E-003 
 2.490344810995200E-003  2.551856327826700E-003  2.614887179124100E-003  2.679474892448400E-003 
 2.745657922291900E-003  2.813475672972500E-003  2.882968522094900E-003  2.954177844590700E-003 
 3.027146037352100E-003  3.101916544474700E-003  3.178533883123200E-003  3.257043670036300E-003 
 3.337492648686200E-003  3.419928717108800E-003  3.504400956421400E-003  3.590959660045000E-003 
 3.679656363648100E-003  3.770543875830200E-003  3.863676309563200E-003  3.959109114409400E-003 
 4.056899109535300E-003  4.157104517540800E-003  4.259784999124100E-003  4.365001688602500E-003 
 4.472817230310900E-003  4.583295815899600E-003  4.696503222552300E-003  4.812506852149400E-003 
 4.931375771397500E-003  5.053180752951000E-003  5.177994317548900E-003  5.305890777192300E-003 
 5.436946279389000E-003  5.571238852489900E-003  5.708848452146400E-003  5.849857008914400E-003 
 5.994348477034600E-003  6.142408884417400E-003  6.294126383862500E-003  6.449591305543900E-003 
 6.608896210790800E-003  6.772135947197300E-003  6.939407705093100E-003  7.110811075408900E-003 
 7.286448108971500E-003  7.466423377263100E-003  7.650844034681500E-003  7.839819882338100E-003 
 8.033463433431901E-003  8.231889980237600E-003  8.435217662749499E-003  8.643567539019400E-003 
 8.857063657233200E-003  9.075833129566901E-003  9.300006207867200E-003  9.529716361201500E-003 
 9.765100355323200E-003  1.000629833410000E-002  1.025345390295200E-002  1.050671421435500E-002 
 1.076623005544900E-002  1.103215593781900E-002  1.130465018948300E-002  1.158387504916300E-002 
 1.186999676287800E-002  1.216318568292100E-002  1.246361636928900E-002  1.277146769361000E-002 
 1.308692294564300E-002  1.341016994240000E-002  1.374140113997700E-002  1.408081374813500E-002 
 1.442860984771400E-002  1.478499651095200E-002  1.515018592477300E-002  1.552439551711400E-002 
 1.590784808638700E-002  1.630077193412100E-002  1.670340100089400E-002  1.711597500561600E-002 
 1.753873958825400E-002  1.797194645608400E-002  1.841585353355000E-002  1.887072511582800E-002 
 1.933683202618900E-002  1.981445177723600E-002  2.030386873613400E-002  2.080537429391600E-002 
 2.131926703897600E-002  2.184585293483900E-002  2.238544550232900E-002  2.293836600623700E-002 
 2.350494364659100E-002  2.408551575466200E-002  2.468042799380200E-002  2.529003456524900E-002 
 2.591469841901000E-002  2.655479146996000E-002  2.721069481926800E-002  2.788279898130400E-002 
 2.857150411614200E-002  2.927722026781100E-002  3.000036760842600E-002  3.074137668835400E-002 
 3.150068869255600E-002  3.227875570326200E-002  3.307604096913300E-002  3.389301918107000E-002 
 3.473017675484300E-002  3.558801212068800E-002  3.646703602006900E-002  3.736777180976400E-002 
 3.829075577346500E-002  3.923653744107000E-002  4.020567991586400E-002  4.119876020978600E-002 
 4.221636958696800E-002  4.325911391576600E-002  4.432761402948500E-002  4.542250609601400E-002 
 4.654444199658500E-002  4.769408971390100E-002  4.887213372983400E-002  5.007927543296100E-002 
 5.131623353615500E-002  5.258374450449800E-002  5.388256299376000E-002  5.521346229970500E-002 
 5.657723481850800E-002  5.797469251852500E-002  5.940666742373300E-002  6.087401210909900E-002 
 6.237760020819400E-002  6.391832693333600E-002  6.549710960859000E-002  6.711488821592200E-002 
 6.877262595485500E-002  7.047130981594001E-002  7.221195116839400E-002  7.399558636225299E-002 
 7.582327734540099E-002  7.769611229583200E-002  7.961520626953900E-002  8.158170186439700E-002 
 8.359676990044700E-002  8.566161011698800E-002  8.777745188687799E-002  8.994555494848400E-002 
 9.216721015571100E-002  9.444374024655700E-002  9.677650063064699E-002  9.916688019622399E-002 
 1.016163021370700E-001  1.041262247998600E-001  1.066981425524100E-001  1.093335866734600E-001 
 1.120341262642900E-001  1.148013691830200E-001  1.176369630018400E-001  1.205425959879900E-001 
 1.235199981088900E-001  1.265709420621800E-001  1.296972443311100E-001  1.329007662660900E-001 
 1.361834151928700E-001  1.395471455481300E-001  1.429939600431700E-001  1.465259108562300E-001 
 1.501451008543800E-001  1.538536848454900E-001  1.576538708611700E-001  1.615479214714400E-001 
 1.655381551317900E-001  1.696269475635400E-001  1.738167331683600E-001  1.781100064776200E-001 
 1.825093236376200E-001  1.870173039314700E-001  1.916366313385700E-001  1.963700561326400E-001 
 2.012203965191100E-001  2.061905403131300E-001  2.112834466588700E-001  2.165021477913400E-001 
 2.218497508417900E-001  2.273294396875800E-001  2.329444768478600E-001  2.386982054260100E-001 
 2.445940511000300E-001  2.506355241622000E-001  2.568262216090000E-001  2.631698292827500E-001 
 2.696701240660300E-001  2.763309761304600E-001  2.831563512408800E-001  2.901503131165300E-001 
 2.973170258505100E-001  3.046607563890200E-001  3.121858770718300E-001  3.198968682355000E-001 
 3.277983208809200E-001  3.358949394066800E-001  3.441915444100200E-001  3.526930755569500E-001 
 3.614045945232100E-001  3.703312880079300E-001  3.794784708217300E-001  3.888515890510200E-001 
 3.984562233005800E-001  4.082980920161100E-001  4.183830548889100E-001  4.287171163446600E-001 
 4.393064291183800E-001  4.501572979176000E-001  4.612761831761600E-001  4.726697049006100E-001 
 4.843446466116600E-001  4.963079593829700E-001  5.085667659797301E-001  5.211283650994299E-001 
 5.340002357173800E-001  5.471900415396000E-001  5.607056355656300E-001  5.745550647641000E-001 
 5.887465748637700E-001  6.032886152629100E-001  6.181898440599000E-001  6.334591332081800E-001 
 6.491055737984200E-001  6.651384814712500E-001  6.815674019635900E-001  6.984021167920900E-001 
 7.156526490768500E-001  7.333292695090500E-001  7.514425024659200E-001  7.700031322768300E-001 
 7.890222096440700E-001  8.085110582222800E-001  8.284812813603700E-001  8.489447690099700E-001 
 8.699137048045100E-001  8.914005733131900E-001  9.134181674740200E-001  9.359795962106300E-001 
 9.590982922370300E-001  9.827880200552900E-001  1.007062884150700E+000  1.031937337389200E+000 
 1.057426189622700E+000  1.083544616506400E+000  1.110308168534100E+000  1.137732780296900E+000 
 1.165834779970200E+000  1.194630899035500E+000  1.224138282241600E+000  1.254374497813000E+000 
 1.285357547909000E+000  1.317105879342300E+000  1.349638394562100E+000  1.382974462907800E+000 
 1.417133932141600E+000  1.452137140265500E+000  1.488004927630100E+000  1.524758649342500E+000 
 1.562420187981300E+000  1.601011966624400E+000  1.640556962200000E+000  1.681078719166400E+000 
 1.722601363529800E+000  1.765149617209000E+000  1.808748812754000E+000  1.853424908429100E+000 
 1.899204503667300E+000  1.946114854907800E+000  1.994183891824100E+000  2.043440233952100E+000 
 2.093913207730700E+000  2.145632863961700E+000  2.198629995701500E+000  2.252936156595400E+000 
 2.308583679663300E+000  2.365605696550900E+000  2.424036157255800E+000  2.483909850340000E+000 
 2.545262423643400E+000  2.608130405507400E+000  2.672551226523400E+000  2.738563241818500E+000 
 2.806205753891400E+000  2.875519036012600E+000  2.946544356202100E+000  3.019324001800300E+000 
 3.093901304644700E+000  3.170320666869400E+000  3.248627587341100E+000  3.328868688748500E+000 
 3.411091745360500E+000  3.495345711470900E+000  3.581680750544300E+000  3.670148265082700E+000 
 3.760800927230300E+000  3.853692710132800E+000  3.948878920073100E+000  4.046416229398900E+000 
 4.146362710265100E+000  4.248777869208600E+000  4.353722682578100E+000  4.461259632837800E+000 
 4.571452745768900E+000  4.684367628589400E+000  4.800071509015500E+000  4.918633275288200E+000 
 5.040123517187800E+000  5.164614568062300E+000  5.292180547893500E+000  5.422897407426500E+000 
 5.556842973389900E+000  5.694096994832600E+000  5.834741190605000E+000  5.978859298012900E+000 
 6.126537122673800E+000  6.277862589603900E+000  6.432925795567100E+000  6.591819062717600E+000 
 6.754636993566700E+000  6.921476527307800E+000  7.092436997532300E+000  7.267620191371400E+000 
 7.447130410098300E+000  7.631074531227700E+000  7.819562072149000E+000  8.012705255331101E+000 
 8.210619075137799E+000  8.413421366293701E+000  8.621232874041100E+000  8.834177326029900E+000 
 9.052381505982900E+000  9.275975329180600E+000  9.505091919811401E+000  9.739867690230801E+000 
 9.980442422179500E+000  1.022695935000700E+001  1.047956524595200E+001  1.073841050752700E+001 
 1.100364924706300E+001  1.127543938346600E+001  1.155394273623700E+001  1.183932512182300E+001 
 1.213175645233200E+001  1.243141083670400E+001  1.273846668437100E+001  1.305310681147500E+001 
 1.337551854971800E+001  1.370589385789600E+001  1.404442943618600E+001  1.439132684326000E+001 
 1.474679261628900E+001  1.511103839391100E+001  1.548428104224000E+001  1.586674278398400E+001 
 1.625865133074800E+001  1.666024001861800E+001  1.707174794707800E+001  1.749342012137000E+001 
 1.792550759836800E+001  1.836826763604800E+001  1.882196384665800E+001  1.928686635367100E+001 
 1.976325195260600E+001  2.025140427583600E+001  2.075161396144900E+001  2.126417882629700E+001 
 2.178940404330600E+001  2.232760232317600E+001  2.287909410055800E+001  2.344420772484200E+001 
 2.402327965564600E+001  2.461665466314000E+001  2.522468603332000E+001  2.584773577834300E+001 
 2.648617485206800E+001  2.714038337091400E+001  2.781075084017500E+001  2.849767638592800E+001 
 2.920156899266000E+001  2.992284774677900E+001  3.066194208612400E+001  3.141929205565200E+001 
 3.219534856942600E+001  3.299057367909100E+001  3.380544084896500E+001  3.464043523793400E+001 
 3.549605398831100E+001  3.637280652182200E+001  3.727121484291100E+001  3.819181384953100E+001 
 3.913515165161500E+001  4.010178989740900E+001  4.109230410787500E+001  4.210728401934000E+001 
 4.314733393461800E+001  4.421307308280300E+001  4.530513598794800E+001  4.642417284685000E+001 
 4.757084991616700E+001  4.874584990909700E+001  4.994987240185100E+001  5.118363425017700E+001 
 5.244787001615700E+001  5.374333240555600E+001  5.507079271597300E+001  5.643104129605700E+001 
 5.782488801607000E+001  5.925316275006700E+001  6.071671586999400E+001  6.221641875198200E+001 
 6.375316429515600E+001  6.532786745324699E+001  6.694146577934200E+001  6.859491998409200E+001 
 7.028921450769900E+001  7.202535810603899E+001  7.380438445125800E+001  7.562735274720400E+001 
 7.749534836006001E+001
    </PP_R>
    <PP_RAB type="real" size="533" columns="4">
 4.357122647059878E-006  4.464743576442152E-006  4.575022742780239E-006  4.688025804526983E-006 
 4.803820041898836E-006  4.922474396933638E-006  5.044059514538068E-006  5.168647784547184E-006 
 5.296313384825363E-006  5.427132325430585E-006  5.561182493868656E-006  5.698543701467391E-006 
 5.839297730893440E-006  5.983528384846659E-006  6.131321535952258E-006  6.282765177890284E-006 
 6.437949477784126E-006  6.596966829885389E-006  6.759911910583688E-006  6.926881734775015E-006 
 7.097975713624087E-006  7.273295713750411E-006  7.452946117880069E-006  7.637033886991732E-006 
 7.825668624000613E-006  8.018962639013282E-006  8.217031016197014E-006  8.419991682297120E-006 
 8.627965476849810E-006  8.841076224127944E-006  9.059450806863828E-006  9.283219241793461E-006 
 9.512514757065664E-006  9.747473871565126E-006  9.988236476192840E-006  1.023494591715485E-005 
 1.048774908130867E-005  1.074679648361689E-005  1.101224235676231E-005  1.128424474297427E-005 
 1.156296558812581E-005  1.184857083815251E-005  1.214123053785474E-005  1.244111893213981E-005 
 1.274841456976374E-005  1.306330040963694E-005  1.338596392975477E-005  1.371659723881977E-005 
 1.405539719061875E-005  1.440256550122695E-005  1.475830886910721E-005  1.512283909817422E-005 
 1.549637322389920E-005  1.587913364252930E-005  1.627134824349989E-005  1.667325054511435E-005 
 1.708507983357868E-005  1.750708130546813E-005  1.793950621371311E-005  1.838261201719179E-005 
 1.883666253401652E-005  1.930192809860660E-005  1.977868572264216E-005  2.026721925999155E-005 
 2.076781957571321E-005  2.128078471923344E-005  2.180642010179841E-005  2.234503867831291E-005 
 2.289696113366712E-005  2.346251607366891E-005  2.404204022068851E-005  2.463587861414035E-005 
 2.524438481590968E-005  2.586792112086280E-005  2.650685877254574E-005  2.716157818422842E-005 
 2.783246916537955E-005  2.851993115376322E-005  2.922437345326216E-005  2.994621547755695E-005 
 3.068588699985402E-005  3.144382840875014E-005  3.222049097044584E-005  3.301633709741499E-005 
 3.383184062372092E-005  3.466748708712791E-005  3.552377401817883E-005  3.640121123642937E-005 
 3.730032115396787E-005  3.822163908647248E-005  3.916571357190784E-005  4.013310669713458E-005 
 4.112439443255385E-005  4.214016697503794E-005  4.318102909932030E-005  4.424760051807457E-005 
 4.534051625087002E-005  4.646042700226739E-005  4.760799954922316E-005  4.878391713808797E-005 
 4.998887989139906E-005  5.122360522471572E-005  5.248882827376619E-005  5.378530233213033E-005 
 5.511379929973402E-005  5.647511014243557E-005  5.787004536295342E-005  5.929943548342014E-005 
 6.076413153986084E-005  6.226500558889342E-005  6.380295122694104E-005  6.537888412224491E-005 
 6.699374256006495E-005  6.864848800129830E-005  7.034410565492988E-005  7.208160506460801E-005 
 7.386202070970406E-005  7.568641262123382E-005  7.755586701297769E-005  7.947149692819720E-005 
 8.143444290232374E-005  8.344587364201238E-005  8.550698672097040E-005  8.761900929297815E-005 
 8.978319882251443E-005  9.200084383343034E-005  9.427326467611593E-005  9.660181431361573E-005 
 9.898787912716174E-005  1.014328797416021E-004  1.039382718712207E-004  1.065055471864407E-004 
 1.091362342019438E-004  1.118318991867323E-004  1.145941470966441E-004  1.174246225299326E-004 
 1.203250107064222E-004  1.232970384708704E-004  1.263424753211012E-004  1.294631344615309E-004 
 1.326608738827320E-004  1.359375974676352E-004  1.392952561250858E-004  1.427358489513750E-004 
 1.462614244204744E-004  1.498740816036612E-004  1.535759714192714E-004  1.573692979133273E-004 
 1.612563195717856E-004  1.652393506652079E-004  1.693207626266392E-004  1.735029854635172E-004 
 1.777885092044661E-004  1.821798853818165E-004  1.866797285507474E-004  1.912907178459501E-004 
 1.960155985767463E-004  2.008571838615902E-004  2.058183563029722E-004  2.109020697036553E-004 
 2.161113508253362E-004  2.214493011907229E-004  2.269190989301337E-004  2.325240006737075E-004 
 2.382673434903487E-004  2.441525468745680E-004  2.501831147823633E-004  2.563626377174897E-004 
 2.626947948690978E-004  2.691833563023746E-004  2.758321852030401E-004  2.826452401775495E-004 
 2.896265776099514E-004  2.967803540769151E-004  3.041108288226114E-004  3.116223662945191E-004 
 3.193194387420141E-004  3.272066288789325E-004  3.352886326122353E-004  3.435702618377714E-004 
 3.520564473051659E-004  3.607522415535904E-004  3.696628219199760E-004  3.787934936213776E-004 
 3.881496929138326E-004  3.977369903288102E-004  4.075610939899368E-004  4.176278530114863E-004 
 4.279432609808526E-004  4.385134595270827E-004  4.493447419774193E-004  4.604435571042449E-004 
 4.718165129647209E-004  4.834703808349528E-004  4.954120992415827E-004  5.076487780928373E-004 
 5.201877029117371E-004  5.330363391736642E-004  5.462023367512409E-004  5.596935344690081E-004 
 5.735179647703913E-004  5.876838585002250E-004  6.021996498051768E-004  6.170739811553668E-004 
 6.323157084898885E-004  6.479339064895998E-004  6.639378739798927E-004  6.803371394671979E-004 
 6.971414668120327E-004  7.143608610422970E-004  7.320055743100434E-004  7.500861119954984E-004 
 7.686132389617789E-004  7.875979859641318E-004  8.070516562174561E-004  8.269858321260131E-004 
 8.474123821795395E-004  8.683434680193834E-004  8.897915516794623E-004  9.117694030059278E-004 
 9.342901072601701E-004  9.573670729095063E-004  9.810140396103607E-004  1.005245086388740E-003 
 1.030074640022549E-003  1.055517483631104E-003  1.081588765476782E-003  1.108304007984076E-003 
 1.135679116981269E-003  1.163730391170715E-003  1.192474531832623E-003  1.221928652768891E-003 
 1.252110290492279E-003  1.283037414667438E-003  1.314728438809746E-003  1.347202231248325E-003 
 1.380478126360166E-003  1.414575936081258E-003  1.449515961702476E-003  1.485319005956522E-003 
 1.522006385403655E-003  1.559599943123115E-003  1.598122061718271E-003  1.637595676642708E-003 
 1.678044289855776E-003  1.719491983815216E-003  1.761963435815458E-003  1.805483932680092E-003 
 1.850079385817299E-003  1.895776346646976E-003  1.942602022409155E-003  1.990584292362671E-003 
 2.039751724384014E-003  2.090133591976298E-003  2.141759891698122E-003  2.194661361023069E-003 
 2.248869496640325E-003  2.304416573207340E-003  2.361335662565562E-003  2.419660653430932E-003 
 2.479426271570658E-003  2.540668100478560E-003  2.603422602560221E-003  2.667727140843592E-003 
 2.733620001222320E-003  2.801140415252561E-003  2.870328583509284E-003  2.941225699522075E-003 
 3.013873974300188E-003  3.088316661465413E-003  3.164598083003466E-003  3.242763655653690E-003 
 3.322859917948522E-003  3.404934557921755E-003  3.489036441502451E-003  3.575215641607408E-003 
 3.663523467955138E-003  3.754012497613797E-003  3.846736606304769E-003  3.941751000480475E-003 
 4.039112250192475E-003  4.138878322772103E-003  4.241108617344587E-003  4.345864000193035E-003 
 4.453206840997872E-003  4.563201049970538E-003  4.675912115904632E-003  4.791407145167655E-003 
 4.909754901653144E-003  5.031025847723928E-003  5.155292186162848E-003  5.282627903160970E-003 
 5.413108812369141E-003  5.546812600034605E-003  5.683818871255381E-003  5.824209197375581E-003 
 5.968067164550698E-003  6.115478423515081E-003  6.266530740575749E-003  6.421314049868159E-003 
 6.579920506899807E-003  6.742444543420208E-003  6.908982923642630E-003  7.079634801856610E-003 
 7.254501781462510E-003  7.433687975464693E-003  7.617300068458699E-003  7.805447380149527E-003 
 7.998241930439296E-003  8.195798506121180E-003  8.398234729222250E-003  8.605671127034101E-003 
 8.818231203871926E-003  9.036041514607481E-003  9.259231740018387E-003  9.487934763996677E-003 
 9.722286752667390E-003  9.962427235458413E-003  1.020849918817429E-002  1.046064911812204E-002 
 1.071902715133983E-002  1.098378712197782E-002  1.125508666389056E-002  1.153308730448863E-002 
 1.181795456090962E-002  1.210985803856413E-002  1.240897153211669E-002  1.271547312895998E-002 
 1.302954531524515E-002  1.335137508453172E-002  1.368115404911970E-002  1.401907855413293E-002 
 1.436534979441994E-002  1.472017393434223E-002  1.508376223052038E-002  1.545633115761425E-002 
 1.583810253720727E-002  1.622930366987651E-002  1.663016747052247E-002  1.704093260704435E-002 
 1.746184364243824E-002  1.789315118040651E-002  1.833511201456246E-002  1.878798928132220E-002 
 1.925205261657091E-002  1.972757831620025E-002  2.021484950061039E-002  2.071415628327543E-002 
 2.122579594347218E-002  2.175007310327616E-002  2.228729990892694E-002  2.283779621667748E-002 
 2.340188978322934E-002  2.397991646087524E-002  2.457222039745994E-002  2.517915424127666E-002 
 2.580107935103587E-002  2.643836601100693E-002  2.709139365147860E-002  2.776055107467031E-002 
 2.844623668621385E-002  2.914885873236421E-002  2.986883554305174E-002  3.060659578096590E-002 
 3.136257869675622E-002  3.213723439056482E-002  3.293102408001288E-002  3.374442037478959E-002 
 3.457790755804634E-002  3.543198187473014E-002  3.630715182703700E-002  3.720393847716327E-002 
 3.812287575755019E-002  3.906451078876075E-002  4.002940420524258E-002  4.101813048911354E-002 
 4.203127831219440E-002  4.306945088650594E-002  4.413326632340112E-002  4.522335800159098E-002 
 4.634037494423032E-002  4.748498220535079E-002  4.865786126582484E-002  4.985971043908936E-002 
 5.109124528693446E-002  5.235319904552301E-002  5.364632306194610E-002  5.497138724157796E-002 
 5.632918050644477E-002  5.772051126495193E-002  5.914620789319850E-002  6.060711922816006E-002 
 6.210411507309566E-002  6.363808671540133E-002  6.520994745727093E-002  6.682063315946485E-002 
 6.847110279850321E-002  7.016233903762825E-002  7.189534881185740E-002  7.367116392751047E-002 
 7.549084167651833E-002  7.735546546592775E-002  7.926614546293680E-002  8.122401925587316E-002 
 8.323025253149108E-002  8.528603976901880E-002  8.739260495131525E-002  8.955120229361166E-002 
 9.176311699026526E-002  9.402966597992266E-002  9.635219872962723E-002  9.873209803824888E-002 
 1.011707808597948E-001  1.036696991470305E-001  1.062303407159634E-001  1.088542301316482E-001 
 1.115429296159000E-001  1.142980399774130E-001  1.171212015648536E-001  1.200140952435060E-001 
 1.229784433960201E-001  1.260160109479008E-001  1.291286064183155E-001  1.323180829968486E-001 
 1.355863396468699E-001  1.389353222361469E-001  1.423670246953806E-001  1.458834902053554E-001 
 1.494868124134272E-001  1.531791366800403E-001  1.569626613560369E-001  1.608396390915308E-001 
 1.648123781770910E-001  1.688832439180652E-001  1.730546600428413E-001  1.773291101459008E-001 
 1.817091391665052E-001  1.861973549039172E-001  1.907964295700434E-001  1.955091013804239E-001 
 2.003381761845209E-001  2.052865291362785E-001  2.103571064059433E-001  2.155529269341697E-001 
 2.208770842294452E-001  2.263327482099106E-001  2.319231670906964E-001  2.376516693178380E-001 
 2.435216655499885E-001  2.495366506890651E-001  2.557002059610808E-001  2.620160010483191E-001 
 2.684877962742147E-001  2.751194448422010E-001  2.819148951297885E-001  2.888781930395173E-001 
 2.960134844075928E-001  3.033250174724457E-001  3.108171454040251E-001  3.184943288955054E-001 
 3.263611388192139E-001  3.344222589480476E-001  3.426824887440636E-001  3.511467462160470E-001 
 3.598200708475950E-001  3.687076265975223E-001  3.778147049744665E-001  3.871467281873522E-001 
 3.967092523735699E-001  4.065079709072099E-001  4.165487177886212E-001  4.268374711179800E-001 
 4.373803566545981E-001  4.481836514639742E-001  4.592537876551250E-001  4.705973562102199E-001 
 4.822211109085959E-001  4.941319723480536E-001  5.063370320650469E-001  5.188435567570587E-001 
 5.316589926089450E-001  5.447909697263942E-001  5.582473066786252E-001  5.720360151535926E-001 
 5.861653047278962E-001  6.006435877546641E-001  6.154794843722151E-001  6.306818276362087E-001 
 6.462596687788212E-001  6.622222825976563E-001  6.785791729778042E-001  6.953400785503726E-001 
 7.125149784905564E-001  7.301140984592804E-001  7.481479166912139E-001  7.666271702335050E-001 
 7.855628613382578E-001  8.049662640133171E-001  8.248489307344570E-001  8.452226993235875E-001 
 8.660996999968807E-001  8.874923625867970E-001  9.094134239426908E-001  9.318759355140777E-001 
 9.548932711212895E-001  9.784791349179637E-001  1.002647569550437E+000  1.027412964518345E+000 
 1.052790064741955E+000  1.078793979341080E+000  1.105440190630799E+000  1.132744563339372E+000 
 1.160723354053850E+000  1.189393220898997E+000  1.218771233455185E+000  1.248874882921535E+000 
 1.279722092529712E+000  1.311331228215194E+000  1.343721109552104E+000  1.376911020958028E+000 
 1.410920723175700E+000  1.445770465038142E+000  1.481480995524592E+000  1.518073576114029E+000 
 1.555569993444047E+000  1.593992572282130E+000  1.633364188817494E+000  1.673708284281292E+000 
 1.715048878903038E+000  1.757410586211939E+000  1.800818627691370E+000  1.845298847795346E+000 
 1.890877729335892E+000
    </PP_RAB>
  </PP_MESH>
  <PP_LOCAL type="real" size="533" columns="4">
-1.561953480198960E+000 -1.561953747105780E+000 -1.561954012276880E+000 -1.561954275989080E+000 
-1.561954538524280E+000 -1.561954800169860E+000 -1.561955061219220E+000 -1.561955321972360E+000 
-1.561955582736280E+000 -1.561955843825580E+000 -1.561956105563060E+000 -1.561956368280220E+000 
-1.561956632317960E+000 -1.561956898027200E+000 -1.561957165769520E+000 -1.561957435917920E+000 
-1.561957708857460E+000 -1.561957984986100E+000 -1.561958264715460E+000 -1.561958548471740E+000 
-1.561958836696420E+000 -1.561959129847320E+000 -1.561959428399520E+000 -1.561959732846300E+000 
-1.561960043700300E+000 -1.561960361494460E+000 -1.561960686783300E+000 -1.561961020144080E+000 
-1.561961362178020E+000 -1.561961713511660E+000 -1.561962074798240E+000 -1.561962446719080E+000 
-1.561962829985220E+000 -1.561963225338860E+000 -1.561963633555220E+000 -1.561964055444020E+000 
-1.561964491851560E+000 -1.561964943662520E+000 -1.561965411802040E+000 -1.561965897237740E+000 
-1.561966400982000E+000 -1.561966924094260E+000 -1.561967467683560E+000 -1.561968032910880E+000 
-1.561968620992080E+000 -1.561969233200560E+000 -1.561969870870220E+000 -1.561970535398640E+000 
-1.561971228250280E+000 -1.561971950959940E+000 -1.561972705136240E+000 -1.561973492465600E+000 
-1.561974314715920E+000 -1.561975173740940E+000 -1.561976071484480E+000 -1.561977009985060E+000 
-1.561977991380700E+000 -1.561979017913860E+000 -1.561980091936900E+000 -1.561981215917440E+000 
-1.561982392444280E+000 -1.561983624233560E+000 -1.561984914135040E+000 -1.561986265138980E+000 
-1.561987680383080E+000 -1.561989163160060E+000 -1.561990716925280E+000 -1.561992345305060E+000 
-1.561994052105240E+000 -1.561995841320100E+000 -1.561997717142000E+000 -1.561999683971220E+000 
-1.562001746426380E+000 -1.562003909355480E+000 -1.562006177847280E+000 -1.562008557243560E+000 
-1.562011053151660E+000 -1.562013671457840E+000 -1.562016418341260E+000 -1.562019300288660E+000 