<UPF version="2.0.1">
  <PP_INFO>
    Generated using FHI98PP, converted with fhi2upf.x v.5.0.2
    Author: Wenhui Mi
    Generation date: July 22 2018
    Pseudopotential type: SL
    Element: Cd
    Functional: PZ

    Suggested minimum cutoff for wavefunctions:   0. Ry
    Suggested minimum cutoff for charge density:   0. Ry
    The Pseudo was generated with a Scalar-Relativistic Calculation
    L component and cutoff radius for Local Potential:  0   0.0000

    Valence configuration: 
    nl pn  l   occ       Rcut    Rcut US       E pseu
    5s  5  0  1.00      0.000      0.000     0.000000
    5p  5  1  1.00      0.000      0.000     0.000000
    5d  5  2  0.00      0.000      0.000     0.000000

    Generation configuration: not available.
    Comment:
    Info: automatically converted from FHI format
  </PP_INFO>
  <!--                               -->
  <!-- END OF HUMAN READABLE SECTION -->
  <!--                               -->
  <PP_HEADER generated="Generated using FHI98PP, converted with fhi2upf.x v.5.0.2"
             author="unknown"
             date="unknown"
             comment="Info: automatically converted from FHI format"
             element="Cd"
             pseudo_type="SL"
             relativistic="scalar"
             is_ultrasoft="F"
             is_paw="F"
             is_coulomb="F"
             has_so="F"
             has_wfc="F"
             has_gipaw="F"
             paw_as_gipaw="F"
             core_correction="T"
             functional="PZ"
             z_valence="2.000000000000000E+000"
             total_psenergy="0.000000000000000E+000"
             wfc_cutoff="0.000000000000000E+000"
             rho_cutoff="0.000000000000000E+000"
             l_max="2"
             l_max_rho="0"
             l_local="0"
             mesh_size="547"
             number_of_wfc="3"
             number_of_proj="2"/>
  <PP_MESH dx="2.439988682353512E-002" mesh="547" xmin="-Infinity" rmax="7.951640714174300E+001" zmesh="0.000000000000000E+000">
    <PP_R type="real" size="547" columns="4">
 1.302083333333300E-004  1.334244791666700E-004  1.367200638020800E-004  1.400970493779900E-004 
 1.435574464976300E-004  1.471033154261200E-004  1.507367673171500E-004  1.544599654698800E-004 
 1.582751266169900E-004  1.621845222444300E-004  1.661904799438600E-004  1.702953847984800E-004 
 1.745016808030000E-004  1.788118723188300E-004  1.832285255651100E-004  1.877542701465700E-004 
 1.923918006191900E-004  1.971438780944800E-004  2.020133318834200E-004  2.070030611809400E-004 
 2.121160367921100E-004  2.173553029008700E-004  2.227239788825200E-004  2.282252611609200E-004 
 2.338624251115900E-004  2.396388270118500E-004  2.455579060390400E-004  2.516231863182100E-004 
 2.578382790202700E-004  2.642068845120700E-004  2.707327945595200E-004  2.774198945851400E-004 
 2.842721659813900E-004  2.912936884811300E-004  2.984886425866100E-004  3.058613120585000E-004 
 3.134160864663500E-004  3.211574638020700E-004  3.290900531579800E-004  3.372185774709800E-004 
 3.455478763345100E-004  3.540829088799800E-004  3.628287567293100E-004  3.717906270205200E-004 
 3.809738555079300E-004  3.903839097389800E-004  4.000263923095300E-004  4.099070441995800E-004 
 4.200317481913000E-004  4.304065323716300E-004  4.410375737212100E-004  4.519312017921200E-004 
 4.630939024763900E-004  4.745323218675600E-004  4.862532702176800E-004  4.982637259920600E-004 
 5.105708400240600E-004  5.231819397726600E-004  5.361045336850400E-004  5.493463156670600E-004 
 5.629151696640400E-004  5.768191743547400E-004  5.910666079613000E-004  6.056659531779500E-004 
 6.206259022214400E-004  6.359553620063100E-004  6.516634594478700E-004  6.677595468962300E-004 
 6.842532077045700E-004  7.011542619348700E-004  7.184727722046600E-004  7.362190496781200E-004 
 7.544036602051700E-004  7.730374306122399E-004  7.921314551483600E-004  8.116971020905200E-004 
 8.317460205121600E-004  8.522901472188100E-004  8.733417138551100E-004  8.949132541873300E-004 
 9.170176115657600E-004  9.396679465714300E-004  9.628777448517501E-004  9.866608251495900E-004 
 1.011031347530800E-003  1.036003821814800E-003  1.061593116213600E-003  1.087814466184100E-003 
 1.114683483498800E-003  1.142216165541300E-003  1.170428904830100E-003  1.199338498779400E-003 
 1.228962159699300E-003  1.259317525043900E-003  1.290422667912400E-003  1.322296107809900E-003 
 1.354956821672800E-003  1.388424255168100E-003  1.422718334270800E-003  1.457859477127200E-003 
 1.493868606212300E-003  1.530767160785700E-003  1.568577109657100E-003  1.607320964265700E-003 
 1.647021792083000E-003  1.687703230347500E-003  1.729389500137100E-003  1.772105420790400E-003 
 1.815876424684000E-003  1.860728572373700E-003  1.906688568111300E-003  1.953783775743600E-003 
 2.002042235004500E-003  2.051492678209100E-003  2.102164547360900E-003  2.154088011680700E-003 
 2.207293985569200E-003  2.261814147012800E-003  2.317680956444000E-003  2.374927676068200E-003 
 2.433588389667000E-003  2.493698022891800E-003  2.555292364057200E-003  2.618408085449500E-003 
 2.683082765160100E-003  2.749354909459500E-003  2.817263975723200E-003  2.886850395923500E-003 
 2.958155600702800E-003  3.031222044040200E-003  3.106093228528000E-003  3.182813731272600E-003 
 3.261429230435100E-003  3.341986532426800E-003  3.424533599777800E-003  3.509119579692300E-003 
 3.595794833310700E-003  3.684610965693400E-003  3.775620856546100E-003  3.868878691702700E-003 
 3.964439995387800E-003  4.062361663273900E-003  4.162701996356700E-003  4.265520735666800E-003 
 4.370879097837700E-003  4.478839811554300E-003  4.589467154899700E-003  4.702826993625700E-003 
 4.818986820368300E-003  4.938015794831400E-003  5.059984784963700E-003  5.184966409152300E-003 
 5.313035079458400E-003  5.444267045921000E-003  5.578740441955300E-003  5.716535330871600E-003 
 5.857733753544100E-003  6.002419777256600E-003  6.150679545754900E-003  6.302601330535000E-003 
 6.458275583399200E-003  6.617794990309200E-003  6.781254526569800E-003  6.948751513376100E-003 
 7.120385675756500E-003  7.296259201947700E-003  7.476476804235800E-003  7.661145781300400E-003 
 7.850376082098501E-003  8.044280371326300E-003  8.242974096498100E-003  8.446575556681600E-003 
 8.655205972931601E-003  8.868989560463000E-003  9.088053602606500E-003  9.312528526590900E-003 
 9.542547981197700E-003  9.778248916333200E-003  1.001977166456700E-002  1.026726002468100E-002 
 1.052086134729100E-002  1.078072662256900E-002  1.104701057014700E-002  1.131987173122900E-002 
 1.159947256299100E-002  1.188597953529600E-002  1.217956322981800E-002  1.248039844159500E-002 
 1.278866428310200E-002  1.310454429089500E-002  1.342822653488000E-002  1.375990373029100E-002 
 1.409977335243000E-002  1.444803775423500E-002  1.480490428676400E-002  1.517058542264700E-002 
 1.554529888258700E-002  1.592926776498700E-002  1.632272067878200E-002  1.672589187954800E-002 
 1.713902140897300E-002  1.756235523777400E-002  1.799614541214700E-002  1.844065020382700E-002 
 1.889613426386200E-002  1.936286878017900E-002  1.984113163905000E-002  2.033120759053400E-002 
 2.083338841802000E-002  2.134797311194500E-002  2.187526804781000E-002  2.241558716859100E-002 
 2.296925217165600E-002  2.353659270029500E-002  2.411794653999300E-002  2.471365981953100E-002 
 2.532408721707300E-002  2.594959217133500E-002  2.659054709796700E-002  2.724733361128600E-002 
 2.792034275148500E-002  2.860997521744700E-002  2.931664160531800E-002  3.004076265296900E-002 
 3.078276949049800E-002  3.154310389691300E-002  3.232221856316700E-002  3.312057736167700E-002 
 3.393865562251000E-002  3.477694041638600E-002  3.563593084467100E-002  3.651613833653400E-002 
 3.741808695344700E-002  3.834231370119700E-002  3.928936884961600E-002  4.025981626020200E-002 
 4.125423372182900E-002  4.227321329475800E-002  4.331736166313900E-002  4.438730049621800E-002 
 4.548366681847500E-002  4.660711338889100E-002  4.775830908959700E-002  4.893793932411000E-002 
 5.014670642541500E-002  5.138533007412300E-002  5.265454772695400E-002  5.395511505580900E-002 
 5.528780639768800E-002  5.665341521571100E-002  5.805275457153900E-002  5.948665760945600E-002 
 6.095597805240900E-002  6.246159071030400E-002  6.400439200084800E-002  6.558530048326899E-002 
 6.720525740520600E-002  6.886522726311500E-002  7.056619837651400E-002  7.230918347641400E-002 
 7.409522030828100E-002  7.592537224989600E-002  7.780072894446800E-002  7.972240694939600E-002 
 8.169155040104600E-002  8.370933169595200E-002  8.577695218884200E-002  8.789564290790700E-002 
 9.006666528773200E-002  9.229131192033900E-002  9.457090732477100E-002  9.690680873569300E-002 
 9.930040691146499E-002  1.017531269621800E-001  1.042664291981400E-001  1.068418099993400E-001 
 1.094808027063200E-001  1.121849785331700E-001  1.149559475029400E-001  1.177953594062600E-001 
 1.207049047835900E-001  1.236863159317500E-001  1.267413679352600E-001  1.298718797232600E-001 
 1.330797151524300E-001  1.363667841166900E-001  1.397350436843800E-001  1.431864992633800E-001 
 1.467232057951900E-001  1.503472689783300E-001  1.540608465220900E-001  1.578661494311900E-001 
 1.617654433221400E-001  1.657610497721900E-001  1.698553477015700E-001  1.740507747898000E-001 
 1.783498289271000E-001  1.827550697016000E-001  1.872691199232300E-001  1.918946671853400E-001 
 1.966344654648100E-001  2.014913367618000E-001  2.064681727798100E-001  2.115679366474700E-001 
 2.167936646826700E-001  2.221484682003300E-001  2.276355353648800E-001  2.332581330883900E-001 
 2.390196089756700E-001  2.449233933173700E-001  2.509730011323100E-001  2.571720342602800E-001 
 2.635241835065100E-001  2.700332308391200E-001  2.767030516408400E-001  2.835376170163700E-001 
 2.905409961566800E-001  2.977173587617500E-001  3.050709775231600E-001  3.126062306679800E-001 
 3.203276045654800E-001  3.282396963982500E-001  3.363472168992900E-001  3.446549931567000E-001 
 3.531679714876700E-001  3.618912203834100E-001  3.708299335268800E-001  3.799894328850000E-001 
 3.893751718772600E-001  3.989927386226300E-001  4.088478592666100E-001  4.189464013904900E-001 
 4.292943775048400E-001  4.398979486292100E-001  4.507634279603500E-001  4.618972846309700E-001 
 4.733061475613500E-001  4.849968094061200E-001  4.969762305984500E-001  5.092515434942300E-001 
 5.218300566185400E-001  5.347192590170200E-001  5.479268247147400E-001  5.614606172851900E-001 
 5.753286945321300E-001  5.895393132870800E-001  6.041009343252700E-001  6.190222274031000E-001 
 6.343120764199600E-001  6.499795847075300E-001  6.660340804498101E-001  6.824851222369200E-001 
 6.993425047561700E-001  7.166162646236500E-001  7.343166863598500E-001  7.524543085129400E-001 
 7.710399299332100E-001  7.900846162025600E-001  8.095997062227600E-001  8.295968189664600E-001 
 8.500878603949400E-001  8.710850305466900E-001  8.926008308011900E-001  9.146480713219800E-001 
 9.372398786836400E-001  9.603897036871200E-001  9.841113293681900E-001  1.008418879203600E+000 
 1.033326825519900E+000  1.058849998110300E+000  1.085003593063600E+000  1.111803181812300E+000 
 1.139264720403000E+000  1.167404558997000E+000  1.196239451604200E+000  1.225786566058800E+000 
 1.256063494240500E+000  1.287088262548200E+000  1.318879342633200E+000  1.351455662396200E+000 
 1.384836617257400E+000  1.419042081703600E+000  1.454092421121700E+000  1.490008503923400E+000 
 1.526811713970300E+000  1.564523963305400E+000  1.603167705199000E+000  1.642765947517500E+000 
 1.683342266421100E+000  1.724920820401700E+000  1.767526364665700E+000  1.811184265872900E+000 
 1.855920517240000E+000  1.901761754015800E+000  1.948735269340000E+000  1.996869030492700E+000 
 2.046191695545800E+000  2.096732630425800E+000  2.148521926397300E+000  2.201590417979400E+000 
 2.255969701303400E+000  2.311692152925600E+000  2.368790949102900E+000  2.427300085545700E+000 
 2.487254397658700E+000  2.548689581280900E+000  2.611642213938500E+000  2.676149776622800E+000 
 2.742250676105400E+000  2.809984267805200E+000  2.879390879220000E+000  2.950511833936700E+000 
 3.023389476235000E+000  3.098067196298000E+000  3.174589456046500E+000  3.253001815610900E+000 
 3.333350960456500E+000  3.415684729179700E+000  3.500052141990500E+000  3.586503429897600E+000 
 3.675090064616100E+000  3.765864789212100E+000  3.858881649505700E+000  3.954196026248500E+000 
 4.051864668096800E+000  4.151945725398800E+000  4.254498784816100E+000  4.359584904801100E+000 
 4.467266651949700E+000  4.577608138252800E+000  4.690675059267700E+000  4.806534733231600E+000 
 4.925256141142400E+000  5.046909967828600E+000  5.171568644034000E+000  5.299306389541600E+000 
 5.430199257363300E+000  5.564325179020200E+000  5.701764010942000E+000  5.842597582012300E+000 
 5.986909742288000E+000  6.134786412922500E+000  6.286315637321700E+000  6.441587633563500E+000 
 6.600694848112500E+000  6.763732010860900E+000  6.930796191529200E+000  7.101986857459900E+000 
 7.277405932839200E+000  7.457157859380300E+000  7.641349658507000E+000  7.830090995072100E+000 
 8.023494242650401E+000  8.221674550443900E+000  8.424749911839900E+000  8.632841234662299E+000 
 8.846072413158501E+000  9.064570401763500E+000  9.288465290687000E+000  9.517890383367000E+000 
 9.752982275836199E+000  9.993880938049299E+000  1.024072979721900E+001  1.049367582321000E+001 
 1.075286961604400E+001  1.101846549556000E+001  1.129062159330000E+001  1.156949994665500E+001 
 1.185526659533700E+001  1.214809168024200E+001  1.244814954474400E+001  1.275561883849900E+001 
 1.307068262381000E+001  1.339352848461800E+001  1.372434863818800E+001  1.406334004955200E+001 
 1.441070454877600E+001  1.476664895113000E+001  1.513138518022300E+001  1.550513039417500E+001 
 1.588810711491100E+001  1.628054336064900E+001  1.668267278165700E+001  1.709473479936400E+001 
 1.751697474890800E+001  1.794964402520600E+001  1.839300023262900E+001  1.884730733837500E+001 
 1.931283582963300E+001  1.978986287462500E+001  2.027867248762800E+001  2.077955569807200E+001 
 2.129281072381500E+001  2.181874314869300E+001  2.235766610446600E+001  2.290990045724600E+001 
 2.347577499854000E+001  2.405562664100400E+001  2.464980061903700E+001  2.525865069432700E+001 
 2.588253936647700E+001  2.652183808882900E+001  2.717692748962300E+001  2.784819759861600E+001 
 2.853604807930200E+001  2.924088846686100E+001  2.996313841199300E+001  3.070322793076900E+001 
 3.146159766065900E+001  3.223869912287700E+001  3.303499499121200E+001  3.385095936749500E+001 
 3.468707806387200E+001  3.554384889205000E+001  3.642178195968300E+001  3.732139997408800E+001 
 3.824323855344800E+001  3.918784654571800E+001  4.015578635539700E+001  4.114763427837500E+001 
 4.216398084505100E+001  4.320543117192400E+001  4.427260532187000E+001  4.536613867332100E+001 
 4.648668229855200E+001  4.763490335132600E+001  4.881148546410400E+001  5.001712915506700E+001 
 5.125255224519700E+001  5.251849028565300E+001  5.381569699570900E+001  5.514494471150300E+001 
 5.650702484587700E+001  5.790274835957000E+001  5.933294624405200E+001  6.079847001628000E+001 
 6.230019222568200E+001  6.383900697365600E+001  6.541583044590600E+001  6.703160145791900E+001 
 6.868728201393000E+001  7.038385787967400E+001  7.212233916930199E+001  7.390376094678400E+001 
 7.572918384216899E+001  7.759969468307099E+001  7.951640714174300E+001
    </PP_R>
    <PP_RAB type="real" size="547" columns="4">
 3.177068596814387E-006  3.255542191155868E-006  3.335954083277253E-006  3.418352149134168E-006 
 3.502785447217870E-006  3.589304247764116E-006  3.677960062684008E-006  3.768805676232215E-006 
 3.861895176435247E-006  3.957283987293206E-006  4.055028901779168E-006  4.155188115653275E-006 
 4.257821262109851E-006  4.362989447283865E-006  4.470755286631895E-006  4.581182942211747E-006 
 4.694338160884371E-006  4.810288313458117E-006  4.929102434800687E-006  5.050851264940252E-006 
 5.175607291184296E-006  5.303444791276423E-006  5.434439877620914E-006  5.568670542598193E-006 
 5.706216705000254E-006  5.847160257613851E-006  5.991585115976847E-006  6.139577268341616E-006 
 6.291224826869657E-006  6.446618080093322E-006  6.605849546671673E-006  6.769014030474460E-006 
 6.936208677027107E-006  7.107533031349668E-006  7.283089097223910E-006  7.462981397925359E-006 
 7.647317038454237E-006  7.836205769304086E-006  8.029760051805869E-006  8.228095125085422E-006 
 8.431329074674954E-006  8.639582902819611E-006  8.852980600519121E-006  9.071649221351848E-006 
 9.295718957119315E-006  9.525323215360263E-006  9.760598698779593E-006  1.000168548663956E-005 
 1.024872711815932E-005  1.050187067797798E-005  1.076126688372405E-005  1.102707017575194E-005 
 1.129943880909313E-005  1.157853494767780E-005  1.186452476088523E-005  1.215757852247918E-005 
 1.245787071198432E-005  1.276558011857047E-005  1.308088994749905E-005  1.340398792920226E-005 
 1.373506643105365E-005  1.407432257190063E-005  1.442195833942652E-005  1.477818071041050E-005 
 1.514320177395751E-005  1.551723885777427E-005  1.590051465756140E-005  1.629325736960311E-005 
 1.669570082663238E-005  1.710808463705013E-005  1.753065432758523E-005  1.796366148947671E-005 
 1.840736392826679E-005  1.886202581729504E-005  1.932791785498217E-005  1.980531742600012E-005 
 2.029450876642242E-005  2.079578313295305E-005  2.130943897633688E-005  2.183578211905237E-005 
 2.237512593739303E-005  2.292779154804654E-005  2.349410799928343E-005  2.407441246686577E-005 
 2.466905045479773E-005  2.527837600103097E-005  2.590275188825581E-005  2.654254985989631E-005 
 2.719815084143460E-005  2.786994516721998E-005  2.855833281284860E-005  2.926372363332588E-005 
 2.998653760707021E-005  3.072720508596552E-005  3.148616705158681E-005  3.226387537776256E-005 
 3.306079309959318E-005  3.387739468915269E-005  3.471416633797592E-005  3.557160624652177E-005 
 3.645022492081227E-005  3.735054547635527E-005  3.827310394962108E-005  3.921844961717842E-005 
 4.018714532272119E-005  4.117976781219363E-005  4.219690807715521E-005  4.323917170665884E-005 
 4.430717924781519E-005  4.540156657523636E-005  4.652298526964396E-005  4.767210300580297E-005 
 4.884960395004710E-005  5.005618916761299E-005  5.129257704005390E-005  5.255950369294288E-005 
 5.385772343415824E-005  5.518800920298295E-005  5.655115303029623E-005  5.794796651014535E-005 
 5.937928128294389E-005  6.084594953063321E-005  6.234884448403918E-005  6.388886094279707E-005 
 6.546691580808410E-005  6.708394862854245E-005  6.874092215966868E-005  7.043882293701095E-005 
 7.217866186355487E-005  7.396147481158567E-005  7.578832323943201E-005  7.766029482344497E-005 
 7.957850410558569E-005  8.154409315699251E-005  8.355823225797163E-005  8.562212059474326E-005 
 8.773698697343342E-005  8.990409055167541E-005  9.212472158830357E-005  9.440020221153250E-005 
 9.673188720615843E-005  9.912116482015105E-005  1.015694575912072E-004  1.040782231937122E-004 
 1.066489553065952E-004  1.092831845026683E-004  1.119824791598844E-004  1.147484463951330E-004 
 1.175827330210939E-004  1.204870265267150E-004  1.234630560819240E-004  1.265125935671474E-004 
 1.296374546282569E-004  1.328394997575743E-004  1.361206354015876E-004  1.394828150960069E-004 
 1.429280406288776E-004  1.464583632324099E-004  1.500758848042519E-004  1.537827591589159E-004 
 1.575811933101407E-004  1.614734487849022E-004  1.654618429698884E-004  1.695487504912452E-004 
 1.737366046283793E-004  1.780278987627006E-004  1.824251878621391E-004  1.869310900023333E-004 
 1.915482879253905E-004  1.962795306371468E-004  2.011276350438853E-004  2.060954876294692E-004 
 2.111860461739162E-004  2.164023415144117E-004  2.217474793498192E-004  2.272246420897602E-004 
 2.328370907493774E-004  2.385881668908850E-004  2.444812946130990E-004  2.505199825900228E-004 
 2.567078261600056E-004  2.630485094661557E-004  2.695458076499830E-004  2.762035890989222E-004 
 2.830258177496813E-004  2.900165554480769E-004  2.971799643676491E-004  3.045203094875421E-004 
 3.120419611318747E-004  3.197493975718413E-004  3.276472076918632E-004  3.357400937218391E-004 
 3.440328740367884E-004  3.525304860254965E-004  3.612379890303116E-004  3.701605673593585E-004 
 3.793035333731498E-004  3.886723306474691E-004  3.982725372144572E-004  4.081098688836564E-004 
 4.181901826450866E-004  4.285194801564049E-004  4.391039113162676E-004  4.499497779257786E-004 
 4.610635374405570E-004  4.724518068153292E-004  4.841213664436818E-004  4.960791641948278E-004 
 5.083323195504354E-004  5.208881278433289E-004  5.337540646010580E-004  5.469377899967065E-004 
 5.604471534096447E-004  5.742901980988409E-004  5.884751659918997E-004  6.030105025919038E-004 
 6.179048620059137E-004  6.331671120974670E-004  6.488063397662750E-004  6.648318563584829E-004 
 6.812532032105432E-004  6.980801573298514E-004  7.153227372159002E-004  7.329912088251243E-004 
 7.510960916831211E-004  7.696481651476868E-004  7.886584748268407E-004  8.081383391550582E-004 
 8.280993561321779E-004  8.485534102286428E-004  8.695126794612968E-004  8.909896426439816E-004 
 9.129970868173028E-004  9.355481148616868E-004  9.586561532987567E-004  9.823349602852479E-004 
 1.006598633804294E-003  1.031461620059255E-003  1.056938722074731E-003  1.083045108509964E-003 
 1.109796322690170E-003  1.137208291860609E-003  1.165297336669575E-003  1.194080180885313E-003 
 1.223573961353168E-003  1.253796238198597E-003  1.284765005282106E-003  1.316498700912556E-003 
 1.349016218825108E-003  1.382336919430091E-003  1.416480641340013E-003  1.451467713181111E-003 
 1.487318965696670E-003  1.524055744149390E-003  1.561699921029868E-003  1.600273909079307E-003 
 1.639800674633572E-003  1.680303751297031E-003  1.721807253954069E-003  1.764335893126738E-003 
 1.807914989686957E-003  1.852570489932236E-003  1.898328981033552E-003  1.945217706865072E-003 
 1.993264584224638E-003  2.042498219454990E-003  2.092947925475528E-003  2.144643739234788E-003 
 2.197616439593880E-003  2.251897565651849E-003  2.307519435523441E-003  2.364515165580874E-003 
 2.422918690170730E-003  2.482764781817992E-003  2.544089071928754E-003  2.606928072005539E-003 
 2.671319195383986E-003  2.737300779510065E-003  2.804912108763981E-003  2.874193437850387E-003 
 2.945186015765179E-003  3.017932110354709E-003  3.092475033480367E-003  3.168859166807310E-003 
 3.247129988227584E-003  3.327334098936683E-003  3.409519251180608E-003  3.493734376684667E-003 
 3.580029615788888E-003  3.668456347298845E-003  3.759067219077010E-003  3.851916179388320E-003 
 3.947058509019201E-003  4.044550854191808E-003  4.144451260290514E-003  4.246819206419720E-003 
 4.351715640818090E-003  4.459203017146312E-003  4.569345331669838E-003  4.682208161362235E-003 
 4.797858702947689E-003  4.916365812910722E-003  5.037800048489458E-003  5.162233709687117E-003 
 5.289740882316571E-003  5.420397482109742E-003  5.554281299917898E-003  5.691472048025809E-003 
 5.832051407611968E-003  5.976103077380006E-003  6.123712823391317E-003  6.274968530129129E-003 
 6.429960252823345E-003  6.588780271068062E-003  6.751523143763291E-003  6.918285765414273E-003 
 7.089167423820144E-003  7.264269859188502E-003  7.443697324710331E-003  7.627556648630626E-003 
 7.815957297851823E-003  8.009011443108829E-003  8.206834025753696E-003  8.409542826189751E-003 
 8.617258533996626E-003  8.830104819786209E-003  9.048208408834925E-003  9.271699156533295E-003 
 9.500710125699679E-003  9.735377665804503E-003  9.975841494149899E-003  1.022224477905527E-002 
 1.047473422509806E-002  1.073346016045799E-002  1.099857662642127E-002  1.127024146909386E-002 
 1.154861643338035E-002  1.183386725928496E-002  1.212616378058927E-002  1.242568002596979E-002 
 1.273259432261130E-002  1.304708940237985E-002  1.336935251061862E-002  1.369957551763080E-002 
 1.403795503291618E-002  1.438469252222937E-002  1.473999442752841E-002  1.510407228988826E-002 
 1.547714287544858E-002  1.585942830447209E-002  1.625115618359265E-002  1.665255974132738E-002 
 1.706387796693812E-002  1.748535575272156E-002  1.791724403981368E-002  1.835979996759712E-002 
 1.881328702679677E-002  1.927797521635865E-002  1.975414120420263E-002  2.024206849194638E-002 
 2.074204758369766E-002  2.125437615901487E-002  2.177935925014246E-002  2.231730942362099E-002 
 2.286854696638460E-002  2.343340007645416E-002  2.401220505834253E-002  2.460530652328397E-002 
 2.521305759440838E-002  2.583582011699169E-002  2.647396487388079E-002  2.712787180626636E-002 
 2.779793023987958E-002  2.848453911680573E-002  2.918810723299020E-002  2.990905348164448E-002 
 3.064780710264226E-002  3.140480793807654E-002  3.218050669414848E-002  3.297536520949297E-002 
 3.378985673016779E-002  3.462446619140152E-002  3.547969050632965E-002  3.635603886183585E-002 
 3.725403302172300E-002  3.817420763736037E-002  3.911711056600212E-002  4.008330319698444E-002 
 4.107336078594794E-002  4.208787279736083E-002  4.312744325545755E-002  4.419269110386630E-002 
 4.528425057413276E-002  4.640277156331316E-002  4.754892002092723E-002  4.872337834544418E-002 
 4.992684579057495E-002  5.116003888160261E-002  5.242369184197777E-002  5.371855703047674E-002 
 5.504540538912730E-002  5.640502690223888E-002  5.779823106672510E-002  5.922584737407220E-002 
 6.068872580421229E-002  6.218773733157707E-002  6.372377444366610E-002  6.529775167242512E-002 
 6.691060613873442E-002  6.856329811036108E-002  7.025681157368728E-002  7.199215481955652E-002 
 7.377036104360113E-002  7.559248896137796E-002  7.745962343872252E-002  7.937287613766023E-002 
 8.133338617826069E-002  8.334232081686190E-002  8.540087614103987E-002  8.751027778172198E-002 
 8.967178164293121E-002  9.188667464951120E-002  9.415627551335561E-002  9.648193551853571E-002 
 9.886503932584262E-002  1.013070057971912E-001  1.038092888403805E-001  1.063733782747390E-001 
 1.090008007181253E-001  1.116931204958616E-001  1.144519405721108E-001  1.172789035042416E-001 
 1.201756924207959E-001  1.231440320235891E-001  1.261856896145726E-001  1.293024761480516E-001 
 1.324962473089090E-001  1.357689046174397E-001  1.391223965614905E-001  1.425587197565601E-001 
 1.460799201345470E-001  1.496880941618700E-001  1.533853900876685E-001  1.571740092228328E-001 
 1.610562072506364E-001  1.650342955697276E-001  1.691106426703007E-001  1.732876755442554E-001 
 1.775678811301995E-001  1.819538077941147E-001  1.864480668466295E-001  1.910533340977407E-001 
 1.957723514499554E-001  2.006079285307702E-001  2.055629443654811E-001  2.106403490913073E-001 
 2.158431657138636E-001  2.211744919069957E-001  2.266375018570971E-001  2.322354481529681E-001 
 2.379716637223473E-001  2.438495638162879E-001  2.498726480425474E-001  2.560445024491907E-001 
 2.623688016597032E-001  2.688493110606908E-001  2.754898890438818E-001  2.822944893032776E-001 
 2.892671631890593E-001  2.964120621198334E-001  3.037334400541938E-001  3.112356560235281E-001 
 3.189231767273111E-001  3.268005791924731E-001  3.348725534985256E-001  3.431439055699576E-001 
 3.516195600375371E-001  3.603045631704456E-001  3.692040858807578E-001  3.783234268020245E-001 
 3.876680154440315E-001  3.972434154254917E-001  4.070553277865007E-001  4.171095943828290E-001 
 4.274122013640778E-001  4.379692827377697E-001  4.487871240214028E-001  4.598721659847330E-001 
 4.712310084845592E-001  4.828704143941294E-001  4.947973136296586E-001  5.070188072763011E-001 
 5.195421718160409E-001  5.323748634598915E-001  5.455245225873577E-001  5.589989782952579E-001 
 5.728062530591513E-001  5.869545675097140E-001  6.014523453272087E-001  6.163082182567856E-001 
 6.315310312477312E-001  6.471298477195506E-001  6.631139549582217E-001  6.794928696456729E-001 
 6.962763435259255E-001  7.134743692110218E-001  7.310971861305471E-001  7.491552866279660E-001 
 7.676594222076769E-001  7.866206099361999E-001  8.060501390016225E-001  8.259595774349641E-001 
 8.463607789976045E-001  8.672658902388543E-001  8.886873577277384E-001  9.106379354636339E-001 
 9.331306924695862E-001  9.561790205735811E-001  9.797966423817426E-001  1.003997619448564E+000 
 1.028796360648947E+000  1.054207630756982E+000  1.080246559236667E+000  1.106928649249832E+000 
 1.134269786886302E+000  1.162286250622388E+000  1.190994721012767E+000  1.220412290621774E+000 
 1.250556474200128E+000  1.281445219112862E+000  1.313096916024959E+000  1.345530409850775E+000 
 1.378765010974086E+000  1.412820506745142E+000  1.447717173261762E+000  1.483475787441326E+000 
 1.520117639391123E+000  1.557664545084076E+000  1.596138859347669E+000  1.635563489173535E+000 
 1.675961907356132E+000  1.717358166467826E+000  1.759776913179583E+000  1.803243402935125E+000 
 1.847783514987608E+000  1.893423767807812E+000  1.940191334872669E+000
    </PP_RAB>
  </PP_MESH>
  <PP_NLCC type="real" size="547" columns="4">
 9.574133574905341E-001  9.574133574904545E-001  9.574133574904545E-001  9.574133574903749E-001 
 9.574133574903749E-001  9.574133574902953E-001  9.574133574902953E-001  9.574133574902157E-001 
 9.574133574901361E-001  9.574133574901361E-001  9.574133574900566E-001  9.574133574899770E-001 
 9.574133574898974E-001  9.574133574898178E-001  9.574133574897382E-001  9.574133574896586E-001 
 9.574133574895791E-001  9.574133574894995E-001  9.574133574893403E-001  9.574133574892607E-001 
 9.574133574891015E-001  9.574133574889425E-001  9.574133574887833E-001  9.574133574886242E-001 
 9.574133574884650E-001  9.574133574883058E-001  9.574133574881467E-001  9.574133574879079E-001 
 9.574133574876692E-001  9.574133574874306E-001  9.574133574871918E-001  9.574133574868735E-001 
 9.574133574865551E-001  9.574133574862368E-001  9.574133574858390E-001  9.574133574855207E-001 
 9.574133574850432E-001  9.574133574846453E-001  9.574133574841679E-001  9.574133574836108E-001 
 9.574133574831333E-001  9.574133574824968E-001  9.574133574818601E-001  9.574133574811438E-001 
 9.574133574804277E-001  9.574133574796319E-001  9.574133574787566E-001  9.574133574778813E-001 
 9.574133574768466E-001  9.574133574758122E-001  9.574133574746185E-001  9.574133574734248E-001 