<UPF version="2.0.1">
  <PP_INFO>
    Generated using FHI98PP, converted with fhi2upf.x v.5.0.2
    Author: Wenhui Mi
    Generation date: July 22 2018
    Pseudopotential type: SL
    Element: I
    Functional: PZ

    Suggested minimum cutoff for wavefunctions:   0. Ry
    Suggested minimum cutoff for charge density:   0. Ry
    The Pseudo was generated with a Scalar-Relativistic Calculation
    L component and cutoff radius for Local Potential:  0   0.0000

    Valence configuration: 
    nl pn  l   occ       Rcut    Rcut US       E pseu
    5s  5  0  2.00      0.000      0.000     0.000000
    5p  5  1  5.00      0.000      0.000     0.000000
    5d  5  2  0.00      0.000      0.000     0.000000

    Generation configuration: not available.
    Comment:
    Info: automatically converted from FHI format
  </PP_INFO>
  <!--                               -->
  <!-- END OF HUMAN READABLE SECTION -->
  <!--                               -->
  <PP_HEADER generated="Generated using FHI98PP, converted with fhi2upf.x v.5.0.2"
             author="unknown"
             date="unknown"
             comment="Info: automatically converted from FHI format"
             element="I "
             pseudo_type="SL"
             relativistic="scalar"
             is_ultrasoft="F"
             is_paw="F"
             is_coulomb="F"
             has_so="F"
             has_wfc="F"
             has_gipaw="F"
             paw_as_gipaw="F"
             core_correction="F"
             functional="PZ"
             z_valence="7.000000000000000E+000"
             total_psenergy="0.000000000000000E+000"
             wfc_cutoff="0.000000000000000E+000"
             rho_cutoff="0.000000000000000E+000"
             l_max="2"
             l_max_rho="0"
             l_local="0"
             mesh_size="551"
             number_of_wfc="3"
             number_of_proj="2"/>
  <PP_MESH dx="2.439988682353512E-002" mesh="551" xmin="-Infinity" rmax="7.939790830643101E+001" zmesh="0.000000000000000E+000">
    <PP_R type="real" size="551" columns="4">
 1.179245283018900E-004  1.208372641509400E-004  1.238219445754700E-004  1.268803466064900E-004 
 1.300142911676700E-004  1.332256441595100E-004  1.365163175702500E-004  1.398882706142300E-004 
 1.433435108984000E-004  1.468840956175900E-004  1.505121327793500E-004  1.542297824590000E-004 
 1.580392580857400E-004  1.619428277604500E-004  1.659428156061400E-004  1.700416031516100E-004 
 1.742416307494500E-004  1.785453990289600E-004  1.829554703849800E-004  1.874744705034900E-004 
 1.921050899249300E-004  1.968500856460700E-004  2.017122827615300E-004  2.066945761457400E-004 
 2.117999321765400E-004  2.170313905013000E-004  2.223920658466800E-004  2.278851498730900E-004 
 2.335139130749600E-004  2.392817067279100E-004  2.451919648840900E-004  2.512482064167300E-004 
 2.574540371152200E-004  2.638131518319700E-004  2.703293366822200E-004  2.770064712982700E-004 
 2.838485311393300E-004  2.908595898584800E-004  2.980438217279800E-004  3.054055041246600E-004 
 3.129490200765400E-004  3.206788608724300E-004  3.285996287359800E-004  3.367160395657600E-004 
 3.450329257430300E-004  3.535552390088900E-004  3.622880534124000E-004  3.712365683316900E-004 
 3.804061115694800E-004  3.898021425252500E-004  3.994302554456200E-004  4.092961827551300E-004 
 4.194057984691800E-004  4.297651216913700E-004  4.403803201971500E-004  4.512577141060200E-004 
 4.624037796444400E-004  4.738251530016500E-004  4.855286342807900E-004  4.975211915475300E-004 
 5.098099649787500E-004  5.224022711137300E-004  5.353056072102400E-004  5.485276557083300E-004 
 5.620762888043300E-004  5.759595731377900E-004  5.901857745943000E-004  6.047633632267799E-004 
 6.197010182984800E-004  6.350076334504500E-004  6.506923219966800E-004  6.667644223499900E-004 
 6.832335035820400E-004  7.001093711205099E-004  7.174020725871900E-004  7.351219037801000E-004 
 7.532794148034600E-004  7.718854163491100E-004  7.909509861329300E-004  8.104874754904200E-004 
 8.305065161350300E-004  8.510200270835600E-004  8.720402217525300E-004  8.935796152298101E-004 
 9.156510317259900E-004  9.382676122096200E-004  9.614428222312000E-004  9.851904599403100E-004 
 1.009524664300800E-003  1.034459923509100E-003  1.060011083619700E-003  1.086193357385100E-003 
 1.113022333312600E-003  1.140513984945400E-003  1.168684680373500E-003  1.197551191978800E-003 
 1.227130706420600E-003  1.257440834869200E-003  1.288499623490500E-003  1.320325564190700E-003 
 1.352937605626200E-003  1.386355164485200E-003  1.420598137048000E-003  1.455686911033100E-003 
 1.491642377735600E-003  1.528485944465600E-003  1.566239547293900E-003  1.604925664112100E-003 
 1.644567328015700E-003  1.685188141017700E-003  1.726812288100800E-003  1.769464551616900E-003 
 1.813170326041800E-003  1.857955633095100E-003  1.903847137232500E-003  1.950872161522100E-003 
 1.999058703911700E-003  2.048435453898400E-003  2.099031809609700E-003  2.150877895307000E-003 
 2.204004579321100E-003  2.258443492430300E-003  2.314227046693400E-003  2.371388454746700E-003 
 2.429961749578900E-003  2.489981804793500E-003  2.551484355371900E-003  2.614506018949600E-003 
 2.679084317617700E-003  2.745257700262800E-003  2.813065565459300E-003  2.882548284926200E-003 
 2.953747227563800E-003  3.026704784084700E-003  3.101464392251500E-003  3.178070562740200E-003 
 3.256568905639800E-003  3.337006157609100E-003  3.419430209702100E-003  3.503890135881700E-003 
 3.590436222238000E-003  3.679119996927300E-003  3.769994260851400E-003  3.863113119094400E-003 
 3.958532013136100E-003  4.056307753860500E-003  4.156498555380900E-003  4.259164069698800E-003 
 4.364365422220300E-003  4.472165248149200E-003  4.582627729778500E-003  4.695818634704000E-003 
 4.811805354981200E-003  4.930656947249200E-003  5.052444173846300E-003  5.177239544940300E-003 
 5.305117361700300E-003  5.436153760534300E-003  5.570426758419500E-003  5.708016299352500E-003 
 5.849004301946500E-003  5.993474708204500E-003  6.141513533497200E-003  6.293208917774600E-003 
 6.448651178043600E-003  6.607932862141300E-003  6.771148803836200E-003  6.938396179290900E-003 
 7.109774564919400E-003  7.285385996672900E-003  7.465335030790700E-003  7.649728806051300E-003 
 7.838677107560700E-003  8.032292432117500E-003  8.230690055190800E-003  8.433988099554000E-003 
 8.642307605613001E-003  8.855772603471600E-003  9.074510186777400E-003  9.298650588390800E-003 
 9.528327257923999E-003  9.763676941194699E-003  1.000483976164200E-002  1.025195930375500E-002 
 1.050518269855800E-002  1.076466071121200E-002  1.103054783077900E-002  1.130300236219900E-002 
 1.158218652054500E-002  1.186826652760300E-002  1.216141271083500E-002  1.246179960479200E-002 
 1.276960605503100E-002  1.308501532459000E-002  1.340821520310700E-002  1.373939811862400E-002 
 1.407876125215400E-002  1.442650665508200E-002  1.478284136946300E-002  1.514797755128900E-002 
 1.552213259680500E-002  1.590552927194600E-002  1.629839584496300E-002  1.670096622233400E-002 
 1.711348008802600E-002  1.753618304620000E-002  1.796932676744100E-002  1.841316913859700E-002 
 1.886797441632000E-002  1.933401338440300E-002  1.981156351499800E-002  2.030090913381900E-002 
 2.080234158942400E-002  2.131615942668300E-002  2.184266856452200E-002  2.238218247806500E-002 
 2.293502238527400E-002  2.350151743819000E-002  2.408200491891300E-002  2.467683044041000E-002 
 2.528634815228800E-002  2.591092095165000E-002  2.655092069915600E-002  2.720672844042500E-002 
 2.787873463290300E-002  2.856733937833600E-002  2.927295266098100E-002  2.999599459170700E-002 
 3.073689565812200E-002  3.149609698087800E-002  3.227405057630600E-002  3.307121962554000E-002 
 3.388807875029100E-002  3.472511429542300E-002  3.558282461852000E-002  3.646172038659800E-002 
 3.736232488014700E-002  3.828517430468600E-002  3.923081811001200E-002  4.019981931733000E-002 
 4.119275485446800E-002  4.221021589937300E-002  4.325280823208700E-002  4.432115259542000E-002 
 4.541588506452700E-002  4.653765742562100E-002  4.768713756403300E-002  4.886500986186500E-002 
 5.007197560545300E-002  5.130875340290800E-002  5.257607961196000E-002  5.387470877837500E-002 
 5.520541408520100E-002  5.656898781310500E-002  5.796624181208900E-002  5.939800798484800E-002 
 6.086513878207300E-002  6.236850770999100E-002  6.390900985042700E-002  6.548756239373300E-002 
 6.710510518485800E-002  6.876260128292400E-002  7.046103753461200E-002  7.220142516171700E-002 
 7.398480036321201E-002  7.581222493218299E-002  7.768478688800801E-002  7.960360112414200E-002 
 8.156981007190800E-002  8.358458438068400E-002  8.564912361488700E-002  8.776465696817499E-002 
 8.993244399528900E-002  9.215377536197200E-002  9.442997361341300E-002  9.676239396166400E-002 
 9.915242509251700E-002  1.016014899923000E-001  1.041110467951100E-001  1.066825896509500E-001 
 1.093176496153300E-001  1.120177955608300E-001  1.147846351111800E-001  1.176198155984300E-001 
 1.205250250437100E-001  1.235019931622900E-001  1.265524923934000E-001  1.296783389555100E-001 
 1.328813939277100E-001  1.361635643577300E-001  1.395268043973700E-001  1.429731164659800E-001 
 1.465045524426900E-001  1.501232148880200E-001  1.538312582957600E-001  1.576308903756600E-001 
 1.615243733679400E-001  1.655140253901300E-001  1.696022218172700E-001  1.737913966961500E-001 
 1.780840441945500E-001  1.824827200861500E-001  1.869900432722800E-001  1.916086973411100E-001 
 1.963414321654300E-001  2.011910655399200E-001  2.061604848587500E-001  2.112526488347700E-001 
 2.164705892609800E-001  2.218174128157300E-001  2.272963029122800E-001  2.329105215942100E-001 
 2.386634114775900E-001  2.445583977410900E-001  2.505989901652900E-001  2.567887852223700E-001 
 2.631314682173700E-001  2.696308154823400E-001  2.762906966247500E-001  2.831150768313800E-001 
 2.901080192291200E-001  2.972736873040700E-001  3.046163473804900E-001  3.121403711607800E-001 
 3.198502383284500E-001  3.277505392151700E-001  3.358459775337800E-001  3.441413731788700E-001 
 3.526416650963800E-001  3.613519142242600E-001  3.702773065056000E-001  3.794231559762900E-001 
 3.887949079289100E-001  3.983981421547500E-001  4.082385762659700E-001  4.183220690997400E-001 
 4.286546242065100E-001  4.392423934244100E-001  4.500916805419900E-001  4.612089450513800E-001 
 4.726008059941500E-001  4.842740459022000E-001  4.962356148359900E-001  5.084926345224300E-001 
 5.210524025951400E-001  5.339223969392400E-001  5.471102801436400E-001  5.606239040631900E-001 
 5.744713144935500E-001  5.886607559615400E-001  6.032006766337900E-001  6.180997333466400E-001 
 6.333667967603001E-001  6.490109566402800E-001  6.650415272693000E-001  6.814680529928500E-001 
 6.983003139017701E-001  7.155483316551500E-001  7.332223754470300E-001  7.513329681205700E-001 
 7.698908924331500E-001  7.889071974762500E-001  8.083932052539100E-001  8.283605174236800E-001 
 8.488210222040500E-001  8.697869014524900E-001  8.912706379183600E-001  9.132850226749500E-001 
 9.358431627350200E-001  9.589584888545700E-001  9.826447635292800E-001  1.006916089188500E+000 
 1.031786916591400E+000  1.057272053431200E+000  1.083386673151000E+000  1.110146323977800E+000 
 1.137566938180000E+000  1.165664841553100E+000  1.194456763139500E+000  1.223959845189000E+000 
 1.254191653365200E+000  1.285170187203300E+000  1.316913890827200E+000  1.349441663930600E+000 
 1.382772873029700E+000  1.416927362993600E+000  1.451925468859500E+000  1.487788027940300E+000 
 1.524536392230500E+000  1.562192441118600E+000  1.600778594414200E+000  1.640317825696200E+000 
 1.680833675990900E+000  1.722350267787900E+000  1.764892319402200E+000  1.808485159691500E+000 
 1.853154743135900E+000  1.898927665291300E+000  1.945831178624000E+000  1.993893208736000E+000 
 2.043142370991800E+000  2.093607987555300E+000  2.145320104847900E+000  2.198309511437700E+000 
 2.252607756370200E+000  2.308247167952500E+000  2.365260873000900E+000  2.423682816564100E+000 
 2.483547782133200E+000  2.544891412351900E+000  2.607750230237000E+000  2.672161660923800E+000 
 2.738164053948600E+000  2.805796706081200E+000  2.875099884721400E+000  2.946114851874000E+000 
 3.018883888715300E+000  3.093450320766600E+000  3.169858543689500E+000  3.248154049718600E+000 
 3.328383454746700E+000  3.410594526078900E+000  3.494836210873100E+000  3.581158665281600E+000 
 3.669613284314100E+000  3.760252732436600E+000  3.853130974927800E+000  3.948303310008500E+000 
 4.045826401765700E+000  4.145758313889400E+000  4.248158544242400E+000  4.353088060285200E+000 
 4.460609335374300E+000  4.570786385958000E+000  4.683684809691200E+000  4.799371824490500E+000 
 4.917916308555500E+000  5.039388841376800E+000  5.163861745758800E+000  5.291409130879000E+000 
 5.422106936411700E+000  5.556032977741100E+000  5.693266992291300E+000  5.833890687000900E+000 
 5.977987786969800E+000  6.125644085308000E+000  6.276947494215100E+000  6.431988097322200E+000 
 6.590858203326100E+000  6.753652400948200E+000  6.920467615251600E+000  7.091403165348300E+000 
 7.266560823532400E+000  7.446044875873700E+000  7.629962184307800E+000  7.818422250260200E+000 
 8.011537279841599E+000  8.209422250653700E+000  8.412194980244800E+000  8.619976196256900E+000 
 8.832889608304400E+000  9.051061981629500E+000  9.274623212575801E+000  9.503706405926399E+000 
 9.738447954152800E+000  9.978987618620399E+000  1.022546861280000E+001  1.047803768753600E+001 
 1.073684521841900E+001  1.100204529531400E+001  1.127379581410800E+001  1.155225857071600E+001 
 1.183759935741300E+001  1.212998806154100E+001  1.242959876666100E+001  1.273660985619800E+001 
 1.305120411964600E+001  1.337356886140100E+001  1.370389601227800E+001  1.404238224378100E+001 
 1.438922908520200E+001  1.474464304360700E+001  1.510883572678400E+001  1.548202396923500E+001 
 1.586442996127500E+001  1.625628138131900E+001  1.665781153143800E+001  1.706925947626400E+001 
 1.749087018532800E+001  1.792289467890500E+001  1.836559017747400E+001  1.881922025485800E+001 
 1.928405499515300E+001  1.976037115353300E+001  2.024845232102500E+001  2.074858909335500E+001 
 2.126107924396100E+001  2.178622790128600E+001  2.232434773044800E+001  2.287575911939000E+001 
 2.344079036963900E+001  2.401977789176900E+001  2.461306640569600E+001  2.522100914591700E+001 
 2.584396807182100E+001  2.648231408319500E+001  2.713642724105000E+001  2.780669699390400E+001 
 2.849352240965300E+001  2.919731241317200E+001  2.991848602977700E+001  3.065747263471200E+001 
 3.141471220879000E+001  3.219065560034700E+001  3.298576479367500E+001  3.380051318407900E+001 
 3.463538585972600E+001  3.549087989046100E+001  3.636750462375600E+001  3.726578198796200E+001 
 3.818624680306500E+001  3.912944709910100E+001  4.009594444244900E+001  4.108631427017700E+001 
 4.210114623265000E+001  4.314104454459700E+001  4.420662834484800E+001  4.529853206496600E+001 
 4.641740580697100E+001  4.756391573040300E+001  4.873874444894400E+001  4.994259143683300E+001 
 5.117617344532300E+001  5.244022492942200E+001  5.373549848517900E+001  5.506276529776300E+001 
 5.642281560061700E+001  5.781645914595300E+001  5.924452568685800E+001  6.070786547132300E+001 
 6.220734974846500E+001  6.374387128725200E+001  6.531834490804700E+001  6.693170802727600E+001 
 6.858492121554900E+001  7.027896876957401E+001  7.201485929818200E+001  7.379362632284700E+001 
 7.561632889302101E+001  7.748405221667900E+001  7.939790830643101E+001
    </PP_R>
    <PP_RAB type="real" size="551" columns="4">
 2.877345144284880E-006  2.948415569348554E-006  3.021241433911507E-006  3.095866097329264E-006 
 3.172333989933290E-006  3.250690639484607E-006  3.330982698279879E-006  3.413257970927266E-006 
 3.497565442809133E-006  3.583955309246507E-006  3.672479005385031E-006  3.763189236818042E-006 
 3.856140010967514E-006  3.951386669238221E-006  4.048985919968574E-006  4.148995872191757E-006 
 4.251476070234778E-006  4.356487529169542E-006  4.464092771140144E-006  4.574355862587330E-006 
 4.687342452393329E-006  4.803119810967303E-006  4.921756870298247E-006  5.043324264994618E-006 
 5.167894374339991E-006  5.295541365386175E-006  5.426341237111163E-006  5.560371865667735E-006 
 5.697713050749842E-006  5.838446563103326E-006  5.982656193211994E-006  6.130427801184403E-006 
 6.281849367873578E-006  6.437011047260155E-006  6.596005220127489E-006  6.758926549064618E-006 
 6.925872034826337E-006  7.096941074086756E-006  7.272235518616590E-006  7.451859735926393E-006 
 7.635920671403797E-006  7.824527911987457E-006  8.017793751413572E-006  8.215833257073517E-006 
 8.418764338523129E-006  8.626707817684827E-006  8.839787500781407E-006  9.058130252050799E-006 
 9.281866069276387E-006  9.511128161187606E-006  9.746053026768851E-006  9.986780536530119E-006 
 1.023345401578237E-005  1.048622032997223E-005  1.074522997212262E-005  1.101063715243406E-005 
 1.128259989009921E-005  1.156128010738447E-005  1.184684372603685E-005  1.213946076607007E-005 
 1.243930544699190E-005  1.274655629153272E-005  1.306139623193360E-005  1.338401271886229E-005 
 1.371459783301829E-005  1.405334839949367E-005  1.440046610496133E-005  1.475615761775389E-005 
 1.512063471091238E-005  1.549411438827186E-005  1.587681901366226E-005  1.626897644329953E-005 
 1.667082016144915E-005  1.708258941943679E-005  1.750452937809696E-005  1.793689125373612E-005 
 1.837993246770319E-005  1.883391679965557E-005  1.929911454460699E-005  1.977580267385894E-005 
 2.026426499990318E-005  2.076479234540066E-005  2.127768271633220E-005  2.180324147942543E-005 
 2.234178154396732E-005  2.289362354810327E-005  2.345909604974148E-005  2.403853572217007E-005 
 2.463228755450681E-005  2.524070505710484E-005  2.586415047201350E-005  2.650299498867208E-005 
 2.715761896489442E-005  2.782841215332680E-005  2.851577393351272E-005  2.922011354967230E-005 
 2.994185035434735E-005  3.068141405809999E-005  3.143924498533581E-005  3.221579433647323E-005 
 3.301152445658387E-005  3.382690911066230E-005  3.466243376569604E-005  3.551859587970907E-005 
 3.639590519793747E-005  3.729488405632483E-005  3.821606769251604E-005  3.916000456452219E-005 
 4.012725667726664E-005  4.111839991719542E-005  4.213402439514924E-005  4.317473479770968E-005 
 4.424115074721219E-005  4.533390717066998E-005  4.645365467778434E-005  4.760105994832456E-005 
 4.877680612904828E-005  4.998159324043776E-005  5.121613859347680E-005  5.248117721673422E-005 
 5.377746229398798E-005  5.510576561264871E-005  5.646687802328288E-005  5.786160991045731E-005 
 5.929079167524455E-005  6.075527422962312E-005  6.225592950309482E-005  6.379365096182161E-005 
 6.536935414057970E-005  6.698397718785062E-005  6.863848142439075E-005  7.033385191557455E-005 
 7.207109805788735E-005  7.385125417991898E-005  7.567538015816074E-005  7.754456204806946E-005 
 7.945991273065475E-005  8.142257257510184E-005  8.343371011770821E-005  8.549452275761457E-005 
 8.760623746972820E-005  8.977011153523101E-005  9.198743329015110E-005  9.425952289241712E-005 
 9.658773310786147E-005  9.897345011562416E-005  1.014180943334812E-004  1.039231212635180E-004 
 1.064900223587254E-004  1.091203259109873E-004  1.118155979609891E-004  1.145774432306248E-004 
 1.174075060784215E-004  1.203074714785577E-004  1.232790660240791E-004  1.263240589548738E-004 
 1.294442632110585E-004  1.326415365123718E-004  1.359177824642274E-004  1.392749516910948E-004 
 1.427150429978646E-004  1.462401045599100E-004  1.498522351425410E-004  1.535535853505622E-004 
 1.573463589087203E-004  1.612328139737662E-004  1.652152644789185E-004  1.692960815115465E-004 
 1.734776947248820E-004  1.777625937845864E-004  1.821533298510652E-004  1.866525170983882E-004 
 1.912628342707167E-004  1.959870262772046E-004  2.008279058262516E-004  2.057883551001597E-004 
 2.108713274711340E-004  2.160798492596700E-004  2.214170215363851E-004  2.268860219683338E-004 
 2.324901067109503E-004  2.382326123467102E-004  2.441169578716689E-004  2.501466467311099E-004 
 2.563252689053745E-004  2.626565030473279E-004  2.691441186725984E-004  2.757919784038057E-004 
 2.826040402703720E-004  2.895843600650634E-004  2.967370937586755E-004  3.040664999744995E-004 
 3.115769425238852E-004  3.192728930042186E-004  3.271589334614138E-004  3.352397591179169E-004 
 3.435201811681292E-004  3.520051296429770E-004  3.606996563451701E-004  3.696089378569023E-004 
 3.787382786219473E-004  3.880931141039074E-004  3.976790140222722E-004  4.075016856686325E-004 
 4.175669773046563E-004  4.278808816440753E-004  4.384495394206806E-004  4.492792430443764E-004 
 4.603764403475641E-004  4.717477384241464E-004  4.833999075632289E-004  4.953398852800540E-004 
 5.075747804464633E-004  5.201118775234964E-004  5.329586408983251E-004  5.461227193284968E-004 
 5.596119504959301E-004  5.734343656731731E-004  5.875981945052932E-004  6.021118699095704E-004 
 6.169840330963336E-004  6.322235387138249E-004  6.478394601200624E-004  6.638410947850242E-004 
 6.802379698262022E-004  6.970398476809166E-004  7.142567319186377E-004  7.318988731970224E-004 
 7.499767753649849E-004  7.685012017165094E-004  7.874831813989149E-004  8.069340159794496E-004 
 8.268652861741459E-004  8.472888587426427E-004  8.682168935535872E-004  8.896618508243744E-004 
 9.116364985397372E-004  9.341539200536532E-004  9.572275218789849E-004  9.808710416694128E-004 
 1.005098556398646E-003  1.029924490741684E-003  1.055363625662991E-003  1.081431107216878E-003 
 1.108142455565138E-003  1.135513574217601E-003  1.163560759500755E-003  1.192300710260433E-003 
 1.221750537803865E-003  1.251927776087628E-003  1.282850392156996E-003  1.314536796843264E-003 
 1.347005855725296E-003  1.380276900361700E-003  1.414369739800641E-003  1.449304672373727E-003 
 1.485102497781339E-003  1.521784529476558E-003  1.559372607354610E-003  1.597889110756280E-003 
 1.637356971791955E-003  1.677799688995216E-003  1.719241341313393E-003  1.761706602443836E-003 
 1.805220755524213E-003  1.849809708185653E-003  1.895500007977840E-003  1.942318858174898E-003 
 1.990294133971810E-003  2.039454399080911E-003  2.089828922738212E-003  2.141447697129853E-003 
 2.194341455248962E-003  2.248541689193596E-003  2.304080668916685E-003  2.360991461438920E-003 
 2.419307950536458E-003  2.479064856914656E-003  2.540297758880453E-003  2.603043113524819E-003 
 2.667338278428920E-003  2.733221533906147E-003  2.800732105793568E-003  2.869910188806763E-003 
 2.940796970470260E-003  3.013434655640885E-003  3.087866491635249E-003  3.164136793978470E-003 
 3.242290972789711E-003  3.322375559817753E-003  3.404438236145350E-003  3.488527860578017E-003 
 3.574694498734302E-003  3.662989452852931E-003  3.753465292338542E-003  3.846175885059176E-003 
 3.941176429420166E-003  4.038523487226890E-003  4.138275017361487E-003  4.240490410290156E-003 
 4.345230523424447E-003  4.452557717352899E-003  4.562535892971567E-003  4.675230529528079E-003 
 4.790708723607291E-003  4.909039229080485E-003  5.030292498038626E-003  5.154540722740396E-003 
 5.281857878591869E-003  5.412319768193181E-003  5.546004066467589E-003  5.682990366909257E-003 
 5.823360228971989E-003  5.967197226627683E-003  6.114586998125267E-003  6.265617296978896E-003 
 6.420378044214457E-003  6.578961381906578E-003  6.741461728039576E-003  6.907975832722122E-003 
 7.078602835790478E-003  7.253444325834277E-003  7.432604400682614E-003  7.616189729379277E-003 
 7.804309615694915E-003  7.997076063202758E-003  8.194603841963750E-003  8.397010556860393E-003 
 8.604416717614648E-003  8.816945810539715E-003  9.034724372060064E-003  9.257882064049990E-003 
 9.486551751032163E-003  9.720869579282556E-003  9.960975057890779E-003  1.020701114182069E-002 
 1.045912431702382E-002  1.071746468765429E-002  1.098218606543928E-002  1.125344606125570E-002 
 1.153140617896874E-002  1.181623191158913E-002  1.210809283980552E-002  1.240716273294850E-002 
 1.271361965245247E-002  1.302764605786805E-002  1.334942891549741E-002  1.367915980971025E-002 
 1.401703505701007E-002  1.436325582291820E-002  1.471802824174428E-002  1.508156353931525E-002 
 1.545407815873629E-002  1.583579388925709E-002  1.622693799832187E-002  1.662774336688037E-002 
 1.703844862804224E-002  1.745929830915503E-002  1.789054297739111E-002  1.833243938893263E-002 
 1.878525064183931E-002  1.924924633269277E-002  1.972470271711020E-002  2.021190287422278E-002 
 2.071113687521621E-002  2.122270195603405E-002  2.174690269434794E-002  2.228405119089849E-002 
 2.283446725531365E-002  2.339847859651977E-002  2.397642101785386E-002  2.456863861699600E-002 
 2.517548399083443E-002  2.579731844540786E-002  2.643451221101064E-002  2.708744466262187E-002 
 2.775650454578737E-002  2.844209020806964E-002  2.914460983620990E-002  2.986448169916317E-002 
 3.060213439713327E-002  3.135800711674196E-002  3.213254989252497E-002  3.292622387486956E-002 
 3.373950160457918E-002  3.457286729421390E-002  3.542681711637997E-002  3.630185949915383E-002 
 3.719851542878475E-002  3.811731875987589E-002  3.905881653324410E-002  4.002356930161449E-002 
 4.101215146336446E-002  4.202515160451017E-002  4.306317284914007E-002  4.412683321851544E-002 
 4.521676599901325E-002  4.633362011918751E-002  4.747806053613155E-002  4.865076863137369E-002 
 4.985244261656913E-002  5.108379794919845E-002  5.234556775854326E-002  5.363850328218066E-002 
 5.496337431325025E-002  5.632096965878647E-002  5.771209760935784E-002  5.913758642031087E-002 
 6.059828480489175E-002  6.209506243957281E-002  6.362881048183046E-002  6.520044210073035E-002 
 6.681089302061796E-002  6.846112207822892E-002  7.015211179356104E-002  7.188486895486154E-002 
 7.366042521804692E-002  7.547983772093346E-002  7.734418971263966E-002  7.925459119854111E-002 
 8.121217960114631E-002  8.321812043729357E-002  8.527360801209596E-002  8.737986612999313E-002 
 8.953814882340505E-002  9.174974109934174E-002  9.401595970449586E-002  9.633815390919651E-002 
 9.871770631075341E-002  1.011560336566311E-001  1.036545876879483E-001  1.062148560038409E-001 
 1.088383629471371E-001  1.115266705119303E-001  1.142813792735759E-001  1.171041293416315E-001 
 1.199966013363718E-001  1.229605173893797E-001  1.259976421688972E-001  1.291097839304679E-001 
 1.322987955935502E-001  1.355665758447117E-001  1.389150702680759E-001  1.423462725036975E-001 
 1.458622254345383E-001  1.494650224027725E-001  1.531568084561208E-001  1.569397816249867E-001 
 1.608161942311249E-001  1.647883542286323E-001  1.688586265780790E-001  1.730294346545572E-001 
 1.773032616905247E-001  1.816826522542819E-001  1.861702137649631E-001  1.907686180449577E-001 
 1.954806029106674E-001  2.003089738025613E-001  2.052566054554834E-001  2.103264436102351E-001 
 2.155215067674068E-001  2.208448879845613E-001  2.262997567177812E-001  2.318893607087099E-001 
 2.376170279182155E-001  2.434861685077960E-001  2.495002768699307E-001  2.556629337086140E-001 
 2.619778081712378E-001  2.684486600330686E-001  2.750793419358792E-001  2.818738016816840E-001 
 2.888360845832293E-001  2.959703358724326E-001  3.032808031684801E-001  3.107718390067531E-001 
 3.184479034302177E-001  3.263135666449379E-001  3.343735117410774E-001  3.426325374810756E-001 
 3.510955611568486E-001  3.597676215174352E-001  3.686538817689136E-001  3.777596326485920E-001 
 3.870902955750097E-001  3.966514258757248E-001  4.064487160948654E-001  4.164879993823960E-001 
 4.267752529671480E-001  4.373166017154218E-001  4.481183217777939E-001  4.591868443257149E-001 
 4.705287593805603E-001  4.821508197372534E-001  4.940599449847570E-001  5.062632256258972E-001 
 5.187679272988600E-001  5.315814951031215E-001  5.447115580321743E-001  5.581659335155674E-001 
 5.719526320734036E-001  5.860798620856146E-001  6.005560346791368E-001  6.153897687357190E-001 
 6.305898960234876E-001  6.461654664552683E-001  6.621257534767154E-001  6.784802595875919E-001 
 6.952387219993950E-001  7.124111184327939E-001  7.300076730580755E-001  7.480388625825979E-001 
 7.665154224884030E-001  7.854483534238639E-001  8.048489277534194E-001  8.247286962689344E-001 
 8.450994950667831E-001  8.659734525949270E-001  8.873629968740365E-001  9.092808628968064E-001 
 9.317401002103659E-001  9.547540806855691E-001  9.783365064785077E-001  1.002501418188515E+000 
 1.027263203217762E+000  1.052636604337254E+000  1.078636728464371E+000  1.105279055657447E+000 
 1.132579448332194E+000  1.160554160705995E+000  1.189219848475434E+000  1.218593578732780E+000 
 1.248692840127485E+000  1.279535553278622E+000  1.311140081444611E+000  1.343525241456294E+000 
 1.376710314920247E+000  1.410715059698795E+000  1.445559721673354E+000  1.481265046798677E+000 
 1.517852293454612E+000  1.555343245102939E+000  1.593760223256978E+000  1.633126100771432E+000 
 1.673464315460468E+000  1.714798884052365E+000  1.757154416488447E+000  1.800556130575709E+000 
 1.845029867000921E+000  1.890602104715853E+000  1.937299976702336E+000
    </PP_RAB>
  </PP_MESH>
  <PP_LOCAL type="real" size="551" columns="4">
-7.354904004043000E+000 -7.354904173086800E+000 -7.354904338083000E+000 -7.354904499130600E+000 
-7.354904656325800E+000 -7.354904809763200E+000 -7.354904959535000E+000 -7.354905105731200E+000 
-7.354905248439600E+000 -7.354905387746000E+000 -7.354905523734600E+000 -7.354905656487400E+000 
-7.354905786084000E+000 -7.354905912603200E+000 -7.354906036121200E+000 -7.354906156712800E+000 
-7.354906274451400E+000 -7.354906389408200E+000 -7.354906501653000E+000 -7.354906611254000E+000 
-7.354906718278400E+000 -7.354906822791400E+000 -7.354906924857000E+000 -7.354907024537600E+000 
-7.354907121894800E+000 -7.354907216988400E+000 -7.354907309876800E+000 -7.354907400618000E+000 
-7.354907489268000E+000 -7.354907575882400E+000 -7.354907660514800E+000 -7.354907743218800E+000 
-7.354907824046000E+000 -7.354907903047800E+000 -7.354907980274400E+000 -7.354908055774600E+000 
-7.354908129597400E+000 -7.354908201790000E+000 -7.354908272399000E+000 -7.354908341470600E+000 
-7.354908409050200E+000 -7.354908475182200E+000 -7.354908539910600E+000 -7.354908603279000E+000 