<UPF version="2.0.1">
  <PP_INFO>
    Generated using FHI98PP, converted with fhi2upf.x v.5.0.2
    Author: Wenhui Mi
    Generation date: 
    Pseudopotential type: SL
    Element: In
    Functional: PZ

    Suggested minimum cutoff for wavefunctions:   0. Ry
    Suggested minimum cutoff for charge density:   0. Ry
    The Pseudo was generated with a Scalar-Relativistic Calculation
    L component and cutoff radius for Local Potential:  0   0.0000

    Valence configuration: 
    nl pn  l   occ       Rcut    Rcut US       E pseu
    5s  5  0  0.40      0.000      0.000     0.000000
    5p  5  1  2.60      0.000      0.000     0.000000
    5d  5  2  0.00      0.000      0.000     0.000000

    Generation configuration: not available.
    Comment:
    Info: automatically converted from FHI format
  </PP_INFO>
  <!--                               -->
  <!-- END OF HUMAN READABLE SECTION -->
  <!--                               -->
  <PP_HEADER generated="Generated using FHI98PP, converted with fhi2upf.x v.5.0.2"
             author="Wenhui Mi"
             date="July 22, 2018"
             comment="Info: automatically converted from FHI format"
             element="In"
             pseudo_type="SL"
             relativistic="scalar"
             is_ultrasoft="F"
             is_paw="F"
             is_coulomb="F"
             has_so="F"
             has_wfc="F"
             has_gipaw="F"
             paw_as_gipaw="F"
             core_correction="T"
             functional="PZ"
             z_valence="3.000000000000000E+000"
             total_psenergy="0.000000000000000E+000"
             wfc_cutoff="0.000000000000000E+000"
             rho_cutoff="0.000000000000000E+000"
             l_max="2"
             l_max_rho="0"
             l_local="0"
             mesh_size="547"
             number_of_wfc="3"
             number_of_proj="2"/>
  <PP_MESH dx="2.439988682353512E-002" mesh="547" xmin="-Infinity" rmax="7.789362332252399E+001" zmesh="0.000000000000000E+000">
    <PP_R type="real" size="547" columns="4">
 1.275510204081600E-004  1.307015306122400E-004  1.339298584183700E-004  1.372379259213000E-004 
 1.406277026915600E-004  1.441012069480400E-004  1.476605067596600E-004  1.513077212766200E-004 
 1.550450219921500E-004  1.588746340353600E-004  1.627988374960300E-004  1.668199687821800E-004 
 1.709404220111000E-004  1.751626504347800E-004  1.794891679005200E-004  1.839225503476600E-004 
 1.884654373412500E-004  1.931205336435700E-004  1.978906108245700E-004  2.027785089119400E-004 
 2.077871380820600E-004  2.129194803926900E-004  2.181785915583900E-004  2.235676027698800E-004 
 2.290897225583000E-004  2.347482387054900E-004  2.405465202015100E-004  2.464880192504900E-004 
 2.525762733259800E-004  2.588149072771300E-004  2.652076354868700E-004  2.717582640834000E-004 
 2.784706932062600E-004  2.853489193284500E-004  2.923970376358700E-004  2.996192444654700E-004 
 3.070198398037700E-004  3.146032298469200E-004  3.223739296241400E-004  3.303365656858600E-004 
 3.384958788583000E-004  3.468567270661000E-004  3.554240882246300E-004  3.642030632037800E-004 
 3.731988788649100E-004  3.824168911728800E-004  3.918625883848500E-004  4.015415943179500E-004 
 4.114596716976100E-004  4.216227255885400E-004  4.320368069105700E-004  4.427081160412600E-004 
 4.536430065074800E-004  4.648479887682200E-004  4.763297340907900E-004  4.880950785228400E-004 
 5.001510269623500E-004  5.125047573283200E-004  5.251636248343300E-004  5.381351663677400E-004 
 5.514271049770200E-004  5.650473544699500E-004  5.790040241253600E-004  5.933054235212600E-004 
 6.079600674822300E-004  6.229766811490400E-004  6.383642051734200E-004  6.541318010412100E-004 
 6.702888565269300E-004  6.868449912831400E-004  7.038100625678300E-004  7.211941711132600E-004 
 7.390076671397600E-004  7.572611565181100E-004  7.759655070841100E-004  7.951318551090800E-004 
 8.147716119302800E-004  8.348964707449600E-004  8.555184135723601E-004  8.766497183875900E-004 
 8.983029664317700E-004  9.204910497026300E-004  9.432271786302900E-004  9.665248899424500E-004 
 9.903980547240300E-004  1.014860886675700E-003  1.039927950576600E-003  1.065614170955800E-003 
 1.091934840978500E-003  1.118905631550600E-003  1.146542600649900E-003  1.174862202886000E-003 
 1.203881299297300E-003  1.233617167389900E-003  1.264087511424400E-003  1.295310472956600E-003 
 1.327304641638600E-003  1.360089066287100E-003  1.393683266224400E-003  1.428107242900200E-003 
 1.463381491799800E-003  1.499527014647200E-003  1.536565331909000E-003  1.574518495607200E-003 
 1.613409102448700E-003  1.653260307279200E-003  1.694095836869000E-003  1.735940004039600E-003 
 1.778817722139400E-003  1.822754519876200E-003  1.867776556517200E-003  1.913910637463200E-003 
 1.961184230208500E-003  2.009625480694700E-003  2.059263230067800E-003  2.110127031850500E-003 
 2.162247169537200E-003  2.215654674624800E-003  2.270381345088000E-003  2.326459764311700E-003 
 2.383923320490200E-003  2.442806226506300E-003  2.503143540301000E-003  2.564971185746400E-003 
 2.628325974034300E-003  2.693245625593000E-003  2.759768792545100E-003  2.827935081721000E-003 
 2.897785078239500E-003  2.969360369672000E-003  3.042703570802900E-003  3.117858349001800E-003 
 3.194869450222100E-003  3.273782725642600E-003  3.354645158966000E-003  3.437504894392400E-003 
 3.522411265283900E-003  3.609414823536400E-003  3.698567369677800E-003  3.789921983708800E-003 
 3.883533056706400E-003  3.979456323207100E-003  4.077748894390300E-003  4.178469292081700E-003 
 4.281677483596100E-003  4.387434917441000E-003  4.495804559901800E-003  4.606850932531300E-003 
 4.720640150564900E-003  4.837239962283800E-003  4.956719789352200E-003  5.079150768149200E-003 
 5.204605792122500E-003  5.333159555187900E-003  5.464888596201100E-003  5.599871344527200E-003 
 5.738188166737100E-003  5.879921414455500E-003  6.025155473392500E-003  6.173976813585300E-003 
 6.326474040880900E-003  6.482737949690600E-003  6.642861577048000E-003  6.806940258001100E-003 
 6.975071682373700E-003  7.147355952928300E-003  7.323895644965700E-003  7.504795867396300E-003 
 7.690164325321000E-003  7.880111384156400E-003  8.074750135345100E-003  8.274196463688099E-003 
 8.478569116341201E-003  8.687989773514799E-003  8.902583120920600E-003  9.122476924007399E-003 
 9.347802104030399E-003  9.578692815999899E-003  9.815286528555100E-003  1.005772410581000E-002 
 1.030614989122400E-002  1.056071179353700E-002  1.082156137483800E-002  1.108885394079600E-002 
 1.136274863313400E-002  1.164340852437200E-002  1.193100071492400E-002  1.222569643258300E-002 
 1.252767113446700E-002  1.283710461148900E-002  1.315418109539300E-002  1.347908936844900E-002 
 1.381202287584900E-002  1.415317984088300E-002  1.450276338295300E-002  1.486098163851200E-002 
 1.522804788498300E-002  1.560418066774200E-002  1.598960393023500E-002  1.638454714731200E-002 
 1.678924546185100E-002  1.720393982475800E-002  1.762887713843000E-002  1.806431040374900E-002 
 1.851049887072200E-002  1.896770819282900E-002  1.943621058519100E-002  1.991628498664600E-002 
 2.040821722581600E-002  2.091230019129300E-002  2.142883400601800E-002  2.195812620596700E-002 
 2.250049192325400E-002  2.305625407375900E-002  2.362574354938100E-002  2.420929941505000E-002 
 2.480726911060200E-002  2.542000865763400E-002  2.604788287147800E-002  2.669126557840300E-002 
 2.735053983819000E-002  2.802609817219300E-002  2.871834279704600E-002  2.942768586413300E-002 
 3.015454970497700E-002  3.089936708269000E-002  3.166258144963300E-002  3.244464721143800E-002 
 3.324602999756100E-002  3.406720693850100E-002  3.490866694988200E-002  3.577091102354400E-002 
 3.665445252582500E-002  3.755981750321300E-002  3.848754499554300E-002  3.943818735693200E-002 
 4.041231058464900E-002  4.141049465609000E-002  4.243333387409500E-002  4.348143722078500E-002 
 4.455542872013800E-002  4.565594780952600E-002  4.678364972042100E-002  4.793920586851600E-002 
 4.912330425346800E-002  5.033664986852900E-002  5.157996512028100E-002  5.285399025875200E-002 
 5.415948381814300E-002  5.549722306845100E-002  5.686800447824200E-002  5.827264418885500E-002 
 5.971197850031900E-002  6.118686436927700E-002  6.269817991919900E-002  6.424682496320300E-002 
 6.583372153979400E-002  6.745981446182700E-002  6.912607187903400E-002  7.083348585444600E-002 
 7.258307295505100E-002  7.437587485704100E-002  7.621295896600901E-002  7.809541905247000E-002 
 8.002437590306601E-002  8.200097798787200E-002  8.402640214417199E-002  8.610185427713300E-002 
 8.822857007777800E-002  9.040781575869900E-002  9.264088880793900E-002  9.492911876149500E-002 
 9.727386799490401E-002  9.967653253437800E-002  1.021385428879800E-001  1.046613648973100E-001 
 1.072465006102700E-001  1.098954891753500E-001  1.126099077579800E-001  1.153913724796000E-001 
 1.182415393798500E-001  1.211621054025300E-001  1.241548094059700E-001  1.272214331983000E-001 
 1.303638025983000E-001  1.335837885224800E-001  1.368833080989800E-001  1.402643258090300E-001 
 1.437288546565100E-001  1.472789573665200E-001  1.509167476134800E-001  1.546443912795300E-001 
 1.584641077441300E-001  1.623781712054100E-001  1.663889120341900E-001  1.704987181614300E-001 
 1.747100365000200E-001  1.790253744015700E-001  1.834473011492900E-001  1.879784494876800E-001 
 1.926215171900200E-001  1.973792686646200E-001  2.022545366006300E-001  2.072502236546700E-001 
 2.123693041789400E-001  2.176148259921600E-001  2.229899121941600E-001  2.284977630253600E-001 
 2.341416577720900E-001  2.399249567190600E-001  2.458511031500200E-001  2.519236253978200E-001 
 2.581461389451500E-001  2.645223485770900E-001  2.710560505869500E-001  2.777511350364500E-001 
 2.846115880718500E-001  2.916414942972200E-001  2.988450392063600E-001  3.062265116747600E-001 
 3.137903065131300E-001  3.215409270840000E-001  3.294829879829700E-001  3.376212177861500E-001 
 3.459604618654700E-001  3.545056852735500E-001  3.632619756998100E-001  3.722345464995900E-001 
 3.814287397981300E-001  3.908500296711400E-001  4.005040254040200E-001  4.103964748315000E-001 
 4.205332677598400E-001  4.309204394735100E-001  4.415641743285000E-001  4.524708094344200E-001 
 4.636468384274500E-001  4.750989153366000E-001  4.868338585454200E-001  4.988586548514900E-001 
 5.111804636263200E-001  5.238066210778900E-001  5.367446446185200E-001  5.500022373405900E-001 
 5.635872926029100E-001  5.775078987302000E-001  5.917723438288300E-001  6.063891207214100E-001 
 6.213669320032200E-001  6.367146952236999E-001  6.524415481957300E-001  6.685568544361600E-001 
 6.850702087407400E-001  7.019914428966300E-001  7.193306315361800E-001  7.370980981351200E-001 
 7.553044211590600E-001  7.739604403616900E-001  7.930772632386200E-001  8.126662716406200E-001 
 8.327391285501400E-001  8.533077850253300E-001  8.743844873154600E-001  8.959817841521500E-001 
 9.181125342207100E-001  9.407899138159600E-001  9.640274246872100E-001  9.878389020769800E-001 
 1.012238522958300E+000  1.037240814475400E+000  1.062860662592900E+000  1.089113320958900E+000 
 1.116014419986600E+000  1.143579976160300E+000  1.171826401571500E+000  1.200770513690300E+000 
 1.230429545378400E+000  1.260821155149300E+000  1.291963437681500E+000  1.323874934592200E+000 
 1.356574645476600E+000  1.390082039219900E+000  1.424417065588600E+000  1.459600167108700E+000 
 1.495652291236200E+000  1.532594902829800E+000  1.570449996929700E+000  1.609240111853800E+000 
 1.648988342616600E+000  1.689718354679300E+000  1.731454398039800E+000  1.774221321671400E+000 
 1.818044588316700E+000  1.862950289648100E+000  1.908965161802400E+000  1.956116601298900E+000 
 2.004432681351000E+000  2.053942168580400E+000  2.104674540144300E+000  2.156660001285900E+000 
 2.209929503317700E+000  2.264514762049600E+000  2.320448276672200E+000  2.377763349106000E+000 
 2.436494103829000E+000  2.496675508193500E+000  2.558343393245900E+000  2.621534475059100E+000 
 2.686286376593000E+000  2.752637650094900E+000  2.820627800052200E+000  2.890297306713500E+000 
 2.961687650189400E+000  3.034841335149000E+000  3.109801916127200E+000  3.186614023455600E+000 
 3.265323389834900E+000  3.345976877563800E+000  3.428622506439700E+000  3.513309482348700E+000 
 3.600088226562700E+000  3.689010405758800E+000  3.780128962781100E+000  3.873498148161800E+000 
 3.969173552421400E+000  4.067212139166200E+000  4.167672279003600E+000  4.270613784295000E+000 
 4.376097944767000E+000  4.484187564002800E+000  4.594946996833700E+000  4.708442187655400E+000 
 4.824740709690500E+000  4.943911805219900E+000  5.066026426808800E+000  5.191157279551000E+000 
 5.319378864355900E+000  5.450767522305500E+000  5.585401480106400E+000  5.723360896665100E+000 
 5.864727910812700E+000  6.009586690209800E+000  6.158023481458000E+000  6.310126661450000E+000 
 6.465986789987800E+000  6.625696663700500E+000  6.789351371293900E+000  6.957048350164800E+000 
 7.128887444413900E+000  7.304970964290900E+000  7.485403747108900E+000  7.670293219662500E+000 
 7.859749462188200E+000  8.053885273904200E+000  8.252816240169601E+000  8.456660801301799E+000 
 8.665540323094000E+000  8.879579169074400E+000  9.098904774550601E+000  9.323647722482001E+000 
 9.553941821227300E+000  9.789924184211600E+000  1.003173531156200E+001  1.027951917375700E+001 
 1.053342329734900E+001  1.079359885279300E+001  1.106020074445700E+001  1.133338770284600E+001 
 1.161332237910600E+001  1.190017144187000E+001  1.219410567648400E+001  1.249530008669300E+001 
 1.280393399883400E+001  1.312019116860600E+001  1.344425989047000E+001  1.377633310976500E+001 
 1.411660853757600E+001  1.446528876845400E+001  1.482258140103500E+001  1.518869916164100E+001 
 1.556386003093300E+001  1.594828737369700E+001  1.634221007182700E+001  1.674586266060200E+001 
 1.715948546831800E+001  1.758332475938600E+001  1.801763288094300E+001  1.846266841310200E+001 
 1.891869632290600E+001  1.938598812208100E+001  1.986482202869700E+001  2.035548313280600E+001 
 2.085826356618600E+001  2.137346267627100E+001  2.190138720437500E+001  2.244235146832300E+001 
 2.299667754959000E+001  2.356469548506500E+001  2.414674346354600E+001  2.474316802709600E+001 
 2.535432427736500E+001  2.598057608701600E+001  2.662229631636500E+001  2.727986703537900E+001 
 2.795367975115300E+001  2.864413564100700E+001  2.935164579134000E+001  3.007663144238600E+001 
 3.081952423901300E+001  3.158076648771600E+001  3.236081141996300E+001  3.316012346203600E+001 
 3.397917851154800E+001  3.481846422078300E+001  3.567848028703700E+001  3.655973875012700E+001 
 3.746276429725500E+001  3.838809457539700E+001  3.933628051140900E+001  4.030788664004100E+001 
 4.130349144005000E+001  4.232368767861900E+001  4.336908276428100E+001  4.444029910855900E+001 
 4.553797449654000E+001  4.666276246660500E+001  4.781533269953000E+001  4.899637141720800E+001 
 5.020658179121300E+001  5.144668436145600E+001  5.271741746518400E+001  5.401953767657400E+001 
 5.535382025718600E+001  5.672105961753800E+001  5.812206979009200E+001  5.955768491390700E+001 
 6.102875973128000E+001  6.253617009664300E+001  6.408081349803000E+001  6.566360959143100E+001 
 6.728550074834000E+001  6.894745261682399E+001  7.065045469645899E+001  7.239552092746200E+001 
 7.418369029437000E+001  7.601602744464100E+001  7.789362332252399E+001
    </PP_R>
    <PP_RAB type="real" size="547" columns="4">
 3.112230462185522E-006  3.189102554601467E-006  3.267873387700311E-006  3.348589860376416E-006 
 3.431300029927809E-006  3.516053140666989E-006  3.602899653241547E-006  3.691891274676525E-006 
 3.783080989160974E-006  3.876523089593345E-006  3.972273209906217E-006  4.070388358190855E-006 
 4.170926950638171E-006  4.273948846319078E-006  4.379515382823181E-006  4.487689412778844E-006 
 4.598535341274550E-006  4.712119164203815E-006  4.828508507559742E-006  4.947772667696544E-006 
 5.069982652588529E-006  5.195211224107542E-006  5.323532941343011E-006  5.455024204994129E-006 
 5.589763302857581E-006  5.727830456438163E-006  5.869307868712049E-006  6.014279773069302E-006 
 6.162832483464184E-006  6.315054445805708E-006  6.471036290616984E-006  6.630870886995329E-006 
 6.794653397904114E-006  6.962481336832233E-006  7.134454625852168E-006  7.310675655110570E-006 
 7.491249343791871E-006  7.676283202583454E-006  7.865887397687293E-006  8.060174816410260E-006 
 8.259261134375576E-006  8.463264884394651E-006  8.672307527039134E-006  8.886513522957040E-006 
 9.106010406973996E-006  9.330928864026419E-006  9.561402806967869E-006  9.797569456299833E-006 
 1.003956942187060E-005  1.028754678659078E-005  1.054164919221940E-005  1.080202792726720E-005 
 1.106883801707072E-005  1.134223831609249E-005  1.162239160249985E-005  1.190946467508178E-005 
 1.220362845255620E-005  1.250505807533434E-005  1.281393300979511E-005  1.313043715513710E-005 
 1.345475895286891E-005  1.378709149900471E-005  1.412763265903018E-005  1.447658518570832E-005 
 1.483415683979519E-005  1.520056051373810E-005  1.557601435842740E-005  1.596074191308072E-005 
 1.635497223833386E-005  1.675894005262058E-005  1.717288587192022E-005  1.759705615295677E-005 
 1.803170343993486E-005  1.847708651490120E-005  1.893347055181932E-005  1.940112727444908E-005 
 1.988033511812811E-005  2.037137939554592E-005  2.087455246661590E-005  2.139015391254113E-005 
 2.191849071418106E-005  2.245987743482121E-005  2.301463640746142E-005  2.358309792672552E-005 
 2.416560044551568E-005  2.476249077651958E-005  2.537412429869986E-005  2.600086516887672E-005 
 2.664308653855022E-005  2.730117077605073E-005  2.797550969421919E-005  2.866650478366756E-005 
 2.937456745182453E-005  3.010011926788354E-005  3.084359221379951E-005  3.160542894148079E-005 
 3.238608303633468E-005  3.318601928733280E-005  3.400571396373013E-005  3.484565509863566E-005 
 3.570634277957111E-005  3.658828944622517E-005  3.749202019554728E-005  3.841807309437846E-005 
 3.936699949980966E-005  4.033936438745538E-005  4.133574668782561E-005  4.235673963101334E-005 
 4.340295109989990E-005  4.447500399206638E-005  4.557353659067183E-005  4.669920294446204E-005 
 4.785267325718925E-005  4.903463428664304E-005  5.024578975352168E-005  5.148686076043429E-005 
 5.275858622121685E-005  5.406172330088166E-005  5.539704786641263E-005  5.676535494871368E-005 
 5.816745921594693E-005  5.960419545858062E-005  6.107641908640742E-005  6.258500663784084E-005 
 6.413085630179463E-005  6.571488845245024E-005  6.733804619722462E-005  6.900129593829694E-005 
 7.070562794797267E-005  7.245205695828721E-005  7.424162276515694E-005  7.607539084745799E-005 
 7.795445300138912E-005  7.987992799052378E-005  8.185296221189038E-005  8.387473037852261E-005 
 8.594643621887231E-005  8.806931319347815E-005  9.024462522935830E-005  9.247366747252244E-005 
 9.475776705909357E-005  9.709828390545444E-005  9.949661151791878E-005  1.019541778224104E-004 
 1.044724460146235E-004  1.070529154311866E-004  1.096971224423370E-004  1.124066413666609E-004 
 1.151830854084193E-004  1.180281076180060E-004  1.209434018761705E-004  1.239307039025119E-004 
 1.269917922889043E-004  1.301284895584397E-004  1.333426632505346E-004  1.366362270328211E-004 
 1.400111418405337E-004  1.434694170439948E-004  1.470131116449802E-004  1.506443355026113E-004 
 1.543652505895269E-004  1.581780722790868E-004  1.620850706643812E-004  1.660885719097918E-004 
 1.701909596359630E-004  1.743946763389705E-004  1.787022248445448E-004  1.831161697982038E-004 
 1.876391391922197E-004  1.922738259302669E-004  1.970229894307454E-004  2.018894572696842E-004 
 2.068761268642455E-004  2.119859671977916E-004  2.172220205875767E-004  2.225874044960914E-004 
 2.280853133871452E-004  2.337190206278065E-004  2.394918804373134E-004  2.454073298841050E-004 
 2.514688909322544E-004  2.576801725382754E-004  2.640448727999863E-004  2.705667811581338E-004 
 2.772497806527480E-004  2.840978502348608E-004  2.911150671356623E-004  2.983056092939223E-004 
 3.056737578434626E-004  3.132238996622124E-004  3.209605299838745E-004  3.288882550744711E-004 
 3.370117949747937E-004  3.453359863106840E-004  3.538657851725625E-004  3.626062700663264E-004 
 3.715626449369586E-004  3.807402422668995E-004  3.901445262508864E-004  3.997810960492880E-004 
 4.096556891217150E-004  4.197741846430038E-004  4.301426070036977E-004  4.407671293966836E-004 
 4.516540774927915E-004  4.628099332068675E-004  4.742413385570557E-004  4.859550996194341E-004 
 4.979581905800303E-004  5.102577578873411E-004  5.228611245071599E-004  5.357757942824954E-004 
 5.490094564012636E-004  5.625699899743902E-004  5.764654687267614E-004  5.907041658042950E-004 
 6.052945586996675E-004  6.202453342995525E-004  6.355653940567622E-004  6.512638592899519E-004 
 6.673500766144246E-004  6.838336235067937E-004  7.007243140074074E-004  7.180322045633895E-004 
 7.357676000161031E-004  7.539410597365026E-004  7.725634039120078E-004  7.916457199886116E-004 
 8.111993692723421E-004  8.312359936933748E-004  8.517675227376017E-004  8.728061805492185E-004 
 8.943644932087711E-004  9.164552961910307E-004  9.390917420069647E-004  9.622873080345145E-004 
 9.860558045429861E-004  1.010411382915202E-003  1.035368544073197E-003  1.060942147111802E-003 
 1.087147418145453E-003  1.113999959373661E-003  1.141515758370183E-003  1.169711197601941E-003 
 1.198603064182701E-003  1.228208559868022E-003  1.258545311296746E-003  1.289631380485777E-003 
 1.321485275583771E-003  1.354125961890687E-003  1.387572873149393E-003  1.421845923116194E-003 
 1.456965517417146E-003  1.492952565697352E-003  1.529828494070098E-003  1.567615257873624E-003 
 1.606335354743100E-003  1.646011838005257E-003  1.686668330403983E-003  1.728329038164958E-003 
 1.771018765407637E-003  1.814762928913212E-003  1.859587573257346E-003  1.905519386316816E-003 
 1.952585715158842E-003  2.000814582323271E-003  2.050234702506645E-003  2.100875499658559E-003 
 2.152767124500121E-003  2.205940472475271E-003  2.260427202145413E-003  2.316259754038403E-003 
 2.373471369963153E-003  2.432096112801240E-003  2.492168886787500E-003  2.553725458291075E-003 
 2.616802477110778E-003  2.681437498295569E-003  2.747669004503441E-003  2.815536428914625E-003 
 2.885080178708911E-003  2.956341659122965E-003  3.029363298103242E-003  3.104188571566454E-003 
 3.180862029284194E-003  3.259429321407562E-003  3.339937225646200E-003  3.422433675119789E-003 
 3.506967786895173E-003  3.593589891231342E-003  3.682351561544926E-003  3.773305645115014E-003 
 3.866506294549247E-003  3.962009000024614E-003  4.059870622325377E-003  4.160149426696704E-003 
 4.262905117536179E-003  4.368198873939309E-003  4.476093386125641E-003  4.586652892763006E-003 
 4.699943219214113E-003  4.816031816728860E-003  4.934987802601914E-003  5.056882001326289E-003 
 5.181786986759041E-003  5.309777125331993E-003  5.440928620327539E-003  5.575319557249732E-003 
 5.713029950313889E-003  5.854141790086627E-003  5.998739092301747E-003  6.146907947881465E-003 
 6.298736574194231E-003  6.454315367576703E-003  6.613736957155990E-003  6.777096259997800E-003 
 6.944490537619738E-003  7.116019453898832E-003  7.291785134410101E-003  7.471892227230101E-003 
 7.656447965242768E-003  7.845562229984159E-003  8.039347617064650E-003  8.237919503206162E-003 
 8.441396114935407E-003  8.649898598974380E-003  8.863551094369130E-003  9.082480806399918E-003 
 9.306818082317999E-003  9.536696488951160E-003  9.772252892228323E-003  1.001362753866638E-002 
 1.026096413887149E-002  1.051440995310166E-002  1.077411587894313E-002  1.104023654115317E-002 
 1.131293038371966E-002  1.159235976419733E-002  1.187869105037315E-002  1.217209471931733E-002 
 1.247274545888442E-002  1.278082227171886E-002  1.309650858183047E-002  1.341999234380150E-002 
 1.375146615469358E-002  1.409112736871446E-002  1.443917821472157E-002  1.479582591662538E-002 
 1.516128281676581E-002  1.553576650233994E-002  1.591949993494784E-002  1.631271158334095E-002 
 1.671563555944964E-002  1.712851175776789E-002  1.755158599818484E-002  1.798511017233991E-002 
 1.842934239359677E-002  1.888454715071864E-002  1.935099546534130E-002  1.982896505333538E-002 
 2.031874049015268E-002  2.082061338025949E-002  2.133488253075200E-002  2.186185412926154E-002 
 2.240184192625434E-002  2.295516742183279E-002  2.352216005715195E-002  2.410315741056350E-002 
 2.469850539860488E-002  2.530855848195115E-002  2.593367987645431E-002  2.657424176940164E-002 
 2.723062554110623E-002  2.790322199197231E-002  2.859243157517502E-002  2.929866463508145E-002 
 3.002234165156673E-002  3.076389349036174E-002  3.152376165957397E-002  3.230239857256464E-002 
 3.310026781730632E-002  3.391784443239447E-002  3.475561518987384E-002  3.561407888506523E-002 
 3.649374663352427E-002  3.739514217537393E-002  3.831880218710576E-002  3.926527660112572E-002 
 4.023512893317380E-002  4.122893661782490E-002  4.224729135228325E-002  4.329079944868506E-002 
 4.436008219506798E-002  4.545577622528561E-002  4.657853389804997E-002  4.772902368533134E-002 
 4.890793057035944E-002  5.011595645544806E-002  5.135382057989675E-002  5.262225994822106E-002 
 5.392202976894307E-002  5.525390390423481E-002  5.661867533066879E-002  5.801715661133623E-002 
 5.945018037963822E-002  6.091859983501343E-002  6.242328925093877E-002  6.396514449543760E-002 
 6.554508356447344E-002  6.716404712851723E-002  6.882299909259053E-002  7.052292717017777E-002 
 7.226484347128304E-002  7.404978510502182E-002  7.587881479711633E-002  7.775302152260653E-002 
 7.967352115421361E-002  8.164145712672215E-002  8.365800111775400E-002  8.572435374536104E-002 
 8.784174528287114E-002  9.001143639135810E-002  9.223471887022605E-002  9.451291642632079E-002 
 9.684738546205100E-002  9.923951588296345E-002  1.016907319252725E-001  1.042024930038270E-001 
 1.067762945810194E-001  1.094136690571720E-001  1.121161866828849E-001  1.148854564939499E-001 
 1.177231272693507E-001  1.206308885129048E-001  1.236104714591727E-001  1.266636501042149E-001 
 1.297922422617887E-001  1.329981106456551E-001  1.362831639786017E-001  1.396493581288749E-001 
 1.430986972746575E-001  1.466332350973421E-001  1.502550760042469E-001  1.539663763815515E-001 
 1.577693458781755E-001  1.616662487213665E-001  1.656594050647842E-001  1.697511923698828E-001 
 1.739440468214197E-001  1.782404647779082E-001  1.826430042579229E-001  1.871542864630938E-001 
 1.917769973387331E-001  1.965138891729986E-001  2.013677822355709E-001  2.063415664567897E-001 
 2.114382031482736E-001  2.166607267660354E-001  2.220122467171580E-001  2.274959492110718E-001 
 2.331150991565851E-001  2.388730421057524E-001  2.447732062457736E-001  2.508191044400301E-001 
 2.570143363197037E-001  2.633625904267877E-001  2.698676464103297E-001  2.765333772766871E-001 
 2.833637516954141E-001  2.903628363622928E-001  2.975347984204368E-001  3.048839079414178E-001 
 3.124145404675631E-001  3.201311796171314E-001  3.280384197536607E-001  3.361409687215857E-001 
 3.444436506490041E-001  3.529514088200313E-001  3.616693086178907E-001  3.706025405407632E-001 
 3.797564232921070E-001  3.891364069474210E-001  3.987480761990146E-001  4.085971536811515E-001 
 4.186895033770547E-001  4.290311341104813E-001  4.396282031230143E-001  4.504870197401456E-001 
 4.616140491277365E-001  4.730159161411726E-001  4.846994092698741E-001  4.966714846788445E-001 
 5.089392703504044E-001  5.215100703280645E-001  5.343913690651703E-001  5.475908358810785E-001 
 5.611163295273269E-001  5.749759028666550E-001  5.891778076674589E-001  6.037304995168552E-001 
 6.186426428549149E-001  6.339231161334333E-001  6.495810171019220E-001  6.656256682243341E-001 
 6.820666222294787E-001  6.989136677985595E-001  7.161768353931870E-001  7.338664032273963E-001 
 7.519929033871146E-001  7.705671281007612E-001  7.896001361648600E-001  8.091032595281300E-001 
 8.290881100384677E-001  8.495665863564121E-001  8.705508810394316E-001  8.920534878011103E-001 
 9.140872089497942E-001  9.366651630108492E-001  9.598007925372098E-001  9.835078721128837E-001 
 1.007800516554072E+000  1.032693189312952E+000  1.058200711088984E+000  1.084338268652888E+000 
 1.111121423888605E+000  1.138566123058665E+000  1.166688706298210E+000  1.195505917343766E+000 
 1.225034913502156E+000  1.255293275865661E+000  1.286299019779543E+000  1.318070605568097E+000 
 1.350626949525644E+000  1.383987435178916E+000  1.418171924827855E+000  1.453200771371096E+000 
 1.489094830423950E+000  1.525875472735430E+000  1.563564596911994E+000  1.602184642455712E+000 
 1.641758603124384E+000  1.682310040621556E+000  1.723863098624895E+000  1.766442517160941E+000 
 1.810073647334809E+000  1.854782466423980E+000  1.900595593344661E+000
    </PP_RAB>
  </PP_MESH>
  <PP_NLCC type="real" size="547" columns="4">
 9.594672792971619E-001  9.594672792970823E-001  9.594672792970027E-001  9.594672792969231E-001 
 9.594672792968436E-001  9.594672792967640E-001  9.594672792966844E-001  9.594672792965252E-001 
 9.594672792964456E-001  9.594672792962865E-001  9.594672792961274E-001  9.594672792959683E-001 
 9.594672792958091E-001  9.594672792956499E-001  9.594672792954908E-001  9.594672792952520E-001 
 9.594672792950928E-001  9.594672792948541E-001  9.594672792945359E-001  9.594672792942971E-001 
 9.594672792939788E-001  9.594672792936605E-001  9.594672792933421E-001  9.594672792929444E-001 
 9.594672792926260E-001  9.594672792921485E-001  9.594672792916710E-001  9.594672792911936E-001 
 9.594672792907161E-001  9.594672792901591E-001  9.594672792895225E-001  9.594672792888859E-001 
 9.594672792881697E-001  9.594672792873739E-001  9.594672792865782E-001  9.594672792857027E-001 
 9.594672792847478E-001  9.594672792837132E-001  9.594672792826788E-001  9.594672792814851E-001 
 9.594672792802119E-001  9.594672792788590E-001  9.594672792773471E-001  9.594672792757555E-001 
 9.594672792740844E-001  9.594672792722542E-001  9.594672792702648E-001  9.594672792681956E-001 
 9.594672792658880E-001  9.594672792634210E-001  9.594672792607950E-001  9.594672792580098E-001 