<UPF version="2.0.1">
  <PP_INFO>
    Generated using FHI98PP, converted with fhi2upf.x v.5.0.2
    Author: Wenhui Mi
    Generation date: July 22 2018
    Pseudopotential type: SL
    Element: Li
    Functional: PZ

    Suggested minimum cutoff for wavefunctions:   0. Ry
    Suggested minimum cutoff for charge density:   0. Ry
    The Pseudo was generated with a Scalar-Relativistic Calculation
    L component and cutoff radius for Local Potential:  0   0.0000

    Valence configuration: 
    nl pn  l   occ       Rcut    Rcut US       E pseu
    2s  2  0  0.50      0.000      0.000     0.000000
    2p  2  1  0.50      0.000      0.000     0.000000

    Generation configuration: not available.
    Comment:
    Info: automatically converted from FHI format
  </PP_INFO>
  <!--                               -->
  <!-- END OF HUMAN READABLE SECTION -->
  <!--                               -->
  <PP_HEADER generated="Generated using FHI98PP, converted with fhi2upf.x v.5.0.2"
             author="unknown"
             date="unknown"
             comment="Info: automatically converted from FHI format"
             element="Li"
             pseudo_type="SL"
             relativistic="scalar"
             is_ultrasoft="F"
             is_paw="F"
             is_coulomb="F"
             has_so="F"
             has_wfc="F"
             has_gipaw="F"
             paw_as_gipaw="F"
             core_correction="T"
             functional="PZ"
             z_valence="1.000000000000000E+000"
             total_psenergy="0.000000000000000E+000"
             wfc_cutoff="0.000000000000000E+000"
             rho_cutoff="0.000000000000000E+000"
             l_max="1"
             l_max_rho="0"
             l_local="0"
             mesh_size="433"
             number_of_wfc="2"
             number_of_proj="1"/>
  <PP_MESH dx="2.439988682353512E-002" mesh="433" xmin="-Infinity" rmax="7.880409825827900E+001" zmesh="0.000000000000000E+000">
    <PP_R type="real" size="433" columns="4">
 2.083333333333300E-003  2.134791666666700E-003  2.187521020833300E-003  2.241552790047900E-003 
 2.296919143962100E-003  2.353653046818000E-003  2.411788277074400E-003  2.471359447518100E-003 
 2.532402025871800E-003  2.594952355910800E-003  2.659047679101800E-003  2.724726156775600E-003 
 2.792026892848000E-003  2.860989957101300E-003  2.931656409041800E-003  3.004068322345100E-003 
 3.078268809907000E-003  3.154302049511700E-003  3.232213310134600E-003  3.312048978895000E-003 
 3.393856588673700E-003  3.477684846413900E-003  3.563583662120300E-003  3.651604178574700E-003 
 3.741798801785500E-003  3.834221232189600E-003  3.928926496624700E-003  4.025970981091300E-003 
 4.125412464324300E-003  4.227310152193100E-003  4.331724712952300E-003  4.438718313362200E-003 
 4.548354655702200E-003  4.660699015698100E-003  4.775818281385800E-003  4.893780992936000E-003 
 5.014657383461600E-003  5.138519420833100E-003  5.265440850527600E-003  5.395497239535700E-003 
 5.528766021352200E-003  5.665326542079600E-003  5.805260107669000E-003  5.948650032328400E-003 
 6.095581688126900E-003  6.246142555823600E-003  6.400422276952500E-003  6.558512707193200E-003 
 6.720507971060900E-003  6.886504517946100E-003  7.056601179539300E-003  7.230899228674000E-003 
 7.409502439622200E-003  7.592517149880900E-003  7.780052323482900E-003  7.972219615872999E-003 
 8.169133440385000E-003  8.370911036362500E-003  8.577672538960700E-003  8.789541050673000E-003 
 9.006642714624700E-003  9.229106789675900E-003  9.457065727380899E-003  9.690655250847200E-003 
 9.930014435543101E-003  1.017528579210100E-002  1.042661535116600E-002  1.068415275034000E-002 
 1.094805132327300E-002  1.121846819095800E-002  1.149556435527500E-002  1.177950479485000E-002 
 1.207045856328300E-002  1.236859888979600E-002  1.267410328237400E-002  1.298715363344800E-002 
 1.330793632819500E-002  1.363664235550100E-002  1.397346742168200E-002  1.431861206699700E-002 
 1.467228178505200E-002  1.503468714514300E-002  1.540604391762800E-002  1.578657320239300E-002 
 1.617650156049300E-002  1.657606114903700E-002  1.698548985941800E-002  1.740503145894600E-002 
 1.783493573598100E-002  1.827545864866000E-002  1.872686247728200E-002  1.918941598047100E-002 
 1.966339455518900E-002  2.014908040070200E-002  2.064676268659900E-002  2.115673772495800E-002 
 2.167930914676500E-002  2.221478808269000E-002  2.276349334833200E-002  2.332575163403600E-002 
 2.390189769939700E-002  2.449227457257200E-002  2.509723375451400E-002  2.571713542825100E-002 
 2.635234867332800E-002  2.700325168556000E-002  2.767023200219300E-002  2.835368673264700E-002 
 2.905402279494400E-002  2.977165715797900E-002  3.050701708978100E-002  3.126054041189800E-002 
 3.203267576007200E-002  3.282388285134600E-002  3.363463275777400E-002  3.446540818689100E-002 
 3.531670376910700E-002  3.618902635220400E-002  3.708289530310400E-002  3.799884281709100E-002 
 3.893741423467300E-002  3.989916836626900E-002  4.088467782491600E-002  4.189452936719100E-002 
 4.292932424256100E-002  4.398967855135200E-002  4.507622361157100E-002  4.618960633477600E-002 
 4.733048961124500E-002  4.849955270464300E-002  4.969749165644800E-002  5.092501970036200E-002 
 5.218286768696100E-002  5.347178451882900E-002  5.479253759644400E-002  5.614591327507600E-002 
 5.753271733297100E-002  5.895377545109500E-002  6.040993370473700E-002  6.190205906724400E-002 
 6.343103992620500E-002  6.499778661238199E-002  6.660323194170800E-002  6.824833177066800E-002 
 6.993406556540400E-002  7.166143698486900E-002  7.343147447839500E-002  7.524523189801199E-002 
 7.710378912589300E-002  7.900825271730200E-002  8.095975655942000E-002  8.295946254643700E-002 
 8.500856127133399E-002  8.710827273473599E-002  8.925984707128400E-002  9.146456529394500E-002 
 9.372374005670500E-002  9.603871643610599E-002  9.841087273207801E-002  1.008416212885600E-001 
 1.033324093343900E-001  1.058847198449500E-001  1.085000724251200E-001  1.111800242140200E-001 
 1.139261708121000E-001  1.167401472311600E-001  1.196236288677700E-001  1.225783325008100E-001 
 1.256060173135800E-001  1.287084859412200E-001  1.318875855439700E-001  1.351452089069100E-001 
 1.384832955669100E-001  1.419038329674100E-001  1.454088576417000E-001  1.490004564254500E-001 
 1.526807676991600E-001  1.564519826613300E-001  1.603163466330700E-001  1.642761603949000E-001 
 1.683337815566600E-001  1.724916259611100E-001  1.767521691223500E-001  1.811179476996700E-001 
 1.855915610078500E-001  1.901756725647400E-001  1.948730116770900E-001  1.996863750655200E-001 
 2.046186285296400E-001  2.096727086543200E-001  2.148516245580800E-001  2.201584596846600E-001 
 2.255963736388700E-001  2.311686040677600E-001  2.368784685882300E-001  2.427293667623600E-001 
 2.487247821213900E-001  2.548682842397900E-001  2.611635308605100E-001  2.676142700727600E-001 
 2.742243425435600E-001  2.809976838043900E-001  2.879383265943600E-001  2.950504032612400E-001 
 3.023381482217900E-001  3.098059004828700E-001  3.174581062247900E-001  3.252993214485500E-001 
 3.333342146883200E-001  3.415675697911300E-001  3.500042887649700E-001  3.586493946974600E-001 
 3.675080347464900E-001  3.765854832047300E-001  3.858871446398800E-001  3.954185571124900E-001 
 4.051853954731700E-001  4.151934747413500E-001  4.254487535674700E-001  4.359573377805800E-001 
 4.467254840237600E-001  4.577596034791500E-001  4.690662656850900E-001  4.806522024475100E-001 
 4.925243118479600E-001  5.046896623506000E-001  5.171554970106600E-001  5.299292377868300E-001 
 5.430184899601600E-001  5.564310466621800E-001  5.701748935147301E-001  5.842582133845500E-001 
 5.986893912551500E-001  6.134770192191500E-001  6.286299015938600E-001  6.441570601632300E-001 
 6.600677395492600E-001  6.763714127161300E-001  6.930777866102200E-001  7.101968079394900E-001 
 7.277386690955900E-001  7.457138142222600E-001  7.641329454335500E-001  7.830070291857500E-001 
 8.023473028066400E-001  8.221652811859700E-001  8.424727636312600E-001  8.632818408929500E-001 
 8.846049023630100E-001  9.064546434513699E-001  9.288440731446200E-001  9.517865217512900E-001 
 9.752956488385500E-001  9.993854513648600E-001  1.024070272013600E+000  1.049364807732300E+000 
 1.075284118483300E+000  1.101843636209800E+000  1.129059174024200E+000  1.156946935622600E+000 
 1.185523524932500E+000  1.214805955998300E+000  1.244811663111500E+000  1.275558511190300E+000 
 1.307064806416700E+000  1.339349307135200E+000  1.372431235021500E+000  1.406330286526500E+000 
 1.441066644603700E+000  1.476660990725400E+000  1.513134517196300E+000  1.550508939771100E+000 
 1.588806510583400E+000  1.628050031394800E+000  1.668262867170300E+000  1.709468959989400E+000 
 1.751692843301100E+000  1.794959656530700E+000  1.839295160047000E+000  1.884725750500200E+000 
 1.931278476537500E+000  1.978981054908000E+000  2.027861886964200E+000  2.077950075572200E+000 
 2.129275442438900E+000  2.181868545867100E+000  2.235760698950000E+000  2.290983988214100E+000 
 2.347571292723000E+000  2.405556303653200E+000  2.464973544353500E+000  2.525858390899000E+000 
 2.588247093154200E+000  2.652176796355100E+000  2.717685563225100E+000  2.784812396636700E+000 
 2.853597262833700E+000  2.924081115225700E+000  2.996305918771700E+000  3.070314674965400E+000 
 3.146151447437000E+000  3.223861388188700E+000  3.303490764477000E+000  3.385086986359600E+000 
 3.468698634922600E+000  3.554375491205200E+000  3.642168565838000E+000  3.732130129414200E+000 
 3.824313743610700E+000  3.918774293077900E+000  4.015568018116900E+000  4.114752548164400E+000 
 4.216386936104100E+000  4.320531693425900E+000  4.427248826253500E+000  4.536601872261900E+000 
 4.648655938506800E+000  4.763477740187900E+000  4.881135640370600E+000  5.001699690687700E+000 
 5.125241673047700E+000  5.251835142372000E+000  5.381555470388600E+000  5.514479890507200E+000 
 5.650687543802700E+000  5.790259526134600E+000  5.933278936430200E+000  6.079830926160000E+000 
 6.230002750036100E+000  6.383883817962000E+000  6.541565748265700E+000  6.703142422247900E+000 
 6.868710040077400E+000  7.038367178067300E+000  7.212214847365500E+000  7.390356554095500E+000 
 7.572898360981600E+000  7.759948950497900E+000  7.951619689575200E+000  8.148024695907701E+000 
 8.349280905896601E+000  8.555508144272199E+000  8.766829195435800E+000  8.983369876563000E+000 
 9.205259112514099E+000  9.432629012593200E+000  9.665614949204301E+000  9.904355638449600E+000 
 1.014899322271900E+001  1.039967335532100E+001  1.065654528719700E+001  1.091976195579100E+001 
 1.118948007609900E+001  1.146586023397800E+001  1.174906698175800E+001  1.203926893620700E+001 
 1.233663887893100E+001  1.264135385924100E+001  1.295359529956400E+001  1.327354910346300E+001 
 1.360140576631900E+001  1.393736048874700E+001  1.428161329281900E+001  1.463436914115200E+001 
 1.499583805893800E+001  1.536623525899400E+001  1.574578126989100E+001  1.613470206725700E+001 
 1.653322920831900E+001  1.694159996976400E+001  1.736005748901700E+001  1.778885090899600E+001 
 1.822823552644800E+001  1.867847294395200E+001  1.913983122566700E+001  1.961258505694100E+001 
 2.009701590784800E+001  2.059341220077100E+001  2.110206948213000E+001  2.162329059833900E+001 
 2.215738587611800E+001  2.270467330725800E+001  2.326547873794700E+001  2.384013606277500E+001 
 2.442898742352500E+001  2.503238341288600E+001  2.565068328318500E+001  2.628425516027900E+001 
 2.693347626273800E+001  2.759873312642800E+001  2.828042183465100E+001  2.897894825396600E+001 
 2.969472827583900E+001  3.042818806425300E+001  3.117976430944000E+001  3.194990448788300E+001 
 3.273906712873400E+001  3.354772208681300E+001  3.437635082235800E+001  3.522544668767000E+001 
 3.609551522085500E+001  3.698707444681000E+001  3.790065518564700E+001  3.883680136873200E+001 
 3.979607036254000E+001  4.077903330049400E+001  4.178627542301700E+001  4.281839642596500E+001 
 4.387601081768600E+001  4.495974828488300E+001  4.607025406752000E+001  4.720818934298800E+001 
 4.837423161975900E+001  4.956907514076800E+001  5.079343129674400E+001  5.204802904977400E+001 
 5.333361536730300E+001  5.465095566687600E+001  5.600083427184800E+001  5.738405487836200E+001 
 5.880144103385800E+001  6.025383662739400E+001  6.174210639209100E+001  6.326713641997500E+001 
 6.482983468954900E+001  6.643113160638100E+001  6.807198055705800E+001  6.975335847681799E+001 
 7.147626643119500E+001  7.324173021204599E+001  7.505080094828300E+001  7.690455573170600E+001 
 7.880409825827900E+001
    </PP_R>
    <PP_RAB type="real" size="433" columns="4">
 5.083309754903069E-005  5.208867505849340E-005  5.337526533243653E-005  5.469363438614814E-005 
 5.604456715548642E-005  5.742886796422781E-005  5.884736100294413E-005  6.030089081971593E-005 
 6.179032282296297E-005  6.331654379668935E-005  6.488046242846764E-005  6.648300985045046E-005 
 6.812514019375762E-005  6.980783115654232E-005  7.153208458611130E-005  7.329892707538746E-005 
 7.510941057414894E-005  7.696461301533036E-005  7.886563895680806E-005  8.081362023904307E-005 
 8.280971665894726E-005  8.485511666042228E-005  8.695103804193413E-005  8.909872868157062E-005 
 9.129946728000552E-005  9.355456412182162E-005  9.586536185563102E-005  9.823323629346436E-005 
 1.006595972299140E-004  1.031458892814927E-004  1.056935927467463E-004  1.083042244875904E-004 
 1.109793388324327E-004  1.137205285015952E-004  1.165294255555835E-004  1.194077023668057E-004 
 1.223570726152678E-004  1.253792923088649E-004  1.284761608288920E-004  1.316495220013672E-004 
 1.349012651948002E-004  1.382333264451118E-004  1.416476896083069E-004  1.451463875416315E-004 
 1.487315033139095E-004  1.524051714457623E-004  1.561695791804740E-004  1.600269677862310E-004 
 1.639796338905516E-004  1.680299308476481E-004  1.721802701395834E-004  1.764331228120330E-004 
 1.807910209454890E-004  1.852565591628434E-004  1.898323961741642E-004  1.945212563596678E-004 
 1.993259313917501E-004  2.042492818971261E-004  2.092942391599863E-004  2.144638068672372E-004 
 2.197610628968598E-004  2.251891611504115E-004  2.307513334308268E-004  2.364508913665680E-004 
 2.422912283833216E-004  2.482758217243893E-004  2.544082345209843E-004  2.606921179136575E-004 
 2.671312132261151E-004  2.737293541928040E-004  2.804904692413745E-004  2.874185838316293E-004 
 2.945178228522755E-004  3.017924130767246E-004  3.092466856797206E-004  3.168850788159941E-004 
 3.247121402627696E-004  3.327325301272498E-004  3.409510236213959E-004  3.493725139048311E-004 
 3.580020149982846E-004  3.668446647687475E-004  3.759057279885349E-004  3.851905994698416E-004 
 3.947048072767684E-004  4.044540160165004E-004  4.144440302121027E-004  4.246807977583508E-004 
 4.351704134629585E-004  4.459191226755000E-004  4.569333250055873E-004  4.682195781332287E-004 
 4.797846017131283E-004  4.916352813754385E-004  5.037786728254035E-004  5.162220060441912E-004 
 5.289726895934958E-004  5.420383150264527E-004  5.554266614075954E-004  5.691456999443678E-004 
 5.832035987330013E-004  5.976087276217039E-004  6.123696631939470E-004  6.274951938748498E-004 
 6.429943251635390E-004  6.588762849950980E-004  6.751505292344688E-004  6.918267473065561E-004 
 7.089148679650431E-004  7.264250652037769E-004  7.443677643143081E-004  7.627536480928572E-004 
 7.815936632007537E-004  8.008990266818177E-004  8.206812326408526E-004  8.409520590870812E-004 
 8.617235749465270E-004  8.830081472477076E-004  9.048184484847396E-004  9.271674641623208E-004 
 9.500685005271266E-004  9.735351924901363E-004  9.975815117446464E-004  1.022221775084729E-003 
 1.047470652929331E-003  1.073343178056679E-003  1.099854754554694E-003  1.127021166992175E-003 
 1.154858589816883E-003  1.183383596985366E-003  1.212613171830912E-003  1.242564717175129E-003 
 1.273256065689356E-003  1.304705490511885E-003  1.336931716127527E-003  1.369953929515873E-003 
 1.403791791574930E-003  1.438465448826821E-003  1.473995545412842E-003  1.510403235384540E-003 
 1.547710195298539E-003  1.585938637122407E-003  1.625111321459335E-003  1.665251571099375E-003 
 1.706383284905542E-003  1.748530952042698E-003  1.791719666558146E-003  1.835975142322147E-003 
 1.881323728337507E-003  1.927792424427430E-003  1.975408897310803E-003  2.024201497074364E-003 
 2.074199274052100E-003  2.125431996121188E-003  2.177930166425382E-003  2.231725041536097E-003 
 2.286848650062027E-003  2.343333811718569E-003  2.401214156868022E-003  2.460524146542654E-003 
 2.521299092962320E-003  2.583575180558503E-003  2.647389487518292E-003  2.712780007859982E-003 
 2.779785674053971E-003  2.848446380203131E-003  2.918803005794157E-003  2.990897440037421E-003 
 3.064772606806345E-003  3.140472490194329E-003  3.218042160702175E-003  3.297527802071615E-003 
 3.378976738782767E-003  3.462437464230636E-003  3.547959669597010E-003  3.635594273436057E-003 
 3.725393451989961E-003  3.817410670254131E-003  3.911700713809534E-003  4.008319721440463E-003 
 4.107325218560188E-003  4.208776151458636E-003  4.312732922399679E-003  4.419257425582901E-003 
 4.528413083994753E-003  4.640264887169329E-003  4.754879429882434E-003  4.872324951800674E-003 
 4.992671378110190E-003  5.115990361149461E-003  5.242355323069811E-003  5.371841499549524E-003 
 5.504525984588370E-003  5.640487776407944E-003  5.779807824485131E-003  5.922569077749931E-003 
 6.068856533970347E-003  6.218757290359456E-003  6.372360595431266E-003  6.529757902138307E-003 
 6.691042922321191E-003  6.856311682502624E-003  7.025662581060476E-003  7.199196446812653E-003 
 7.377016599048863E-003  7.559228909045412E-003  7.745941863098666E-003  7.937266627117391E-003 
 8.133317112806966E-003  8.334210045493506E-003  8.540065033617173E-003  8.751004639947400E-003 
 8.967154454554170E-003  9.188643169581699E-003  9.415602655870199E-003  9.648168041470315E-003 
 9.886477792094669E-003  1.013067379355923E-002  1.038090143626035E-002  1.063730970173582E-002 
 1.090005125136869E-002  1.116928251727757E-002  1.144516379545445E-002  1.172785934120213E-002 
 1.201753746692974E-002  1.231437064236279E-002  1.261853559722916E-002  1.293021342648088E-002 
 1.324958969811485E-002  1.357685456365838E-002  1.391220287138060E-002  1.425583428230385E-002 
 1.460795338907680E-002  1.496876983778694E-002  1.533849845278020E-002  1.571735936456392E-002 
 1.610557814086860E-002  1.650338592094814E-002  1.691101955319559E-002  1.732872173615947E-002 
 1.775674116304247E-002  1.819533266976984E-002  1.864475738671316E-002  1.910528289416476E-002 
 1.957718338165068E-002  2.006073981117760E-002  2.055624008451360E-002  2.106397921460103E-002 
 2.158425950120178E-002  2.211739071088131E-002  2.266369026144011E-002  2.322348341089762E-002 
 2.379710345114687E-002  2.438489190639015E-002  2.498719873647866E-002  2.560438254526881E-002 
 2.623681079413725E-002  2.688486002075153E-002  2.754891606326453E-002  2.822937429002722E-002 
 2.892663983499142E-002  2.964112783891491E-002  3.037326369653713E-002  3.112348330984028E-002 
 3.189223334759332E-002  3.267997151127906E-002  3.348716680760913E-002  3.431429982775631E-002 
 3.516186303350179E-002  3.603036105042901E-002  3.692031096837418E-002  3.783224264929427E-002 
 3.876669904273072E-002  3.972423650908592E-002  4.070542515086152E-002  4.171084915208765E-002 
 4.274110712614328E-002  4.379681247216055E-002  4.487859374022272E-002  4.598709500560717E-002 
 4.712297625224433E-002  4.828691376567534E-002  4.947960053568685E-002  5.070174666891793E-002 
 5.195407981164183E-002  5.323734558298839E-002  5.455230801888778E-002  5.589975002695517E-002 
 5.728047385262124E-002  5.869530155677957E-002  6.014507550523363E-002  6.163065887021214E-002 
 6.315293614430624E-002  6.471281366707039E-002  6.631122016464773E-002  6.794910730271307E-002 
 6.962745025309187E-002  7.134724827434344E-002  7.310952530671790E-002  7.491533058179478E-002 
 7.676573924716401E-002  7.866185300656911E-002  8.060480077583232E-002  8.259573935499581E-002 
 8.463585411706222E-002  8.672635971375393E-002  8.886850079868443E-002  9.106355276841196E-002 
 9.331282252179099E-002  9.561764923807961E-002  9.797940517425958E-002  1.003994964820641E-001 
 1.028793640451720E-001  1.054204843370885E-001  1.080243703002141E-001  1.106925722466279E-001 
 1.134266787811204E-001  1.162283177470136E-001  1.190991571953663E-001  1.220409063780905E-001 
 1.250553167656297E-001  1.281441830897413E-001  1.313093444120581E-001  1.345526852190360E-001 
 1.378761365439455E-001  1.412816771165803E-001  1.447713345413617E-001  1.483471865045327E-001 
 1.520113620111934E-001  1.557660426528701E-001  1.596134639063969E-001  1.635559164648858E-001 
 1.675957476015680E-001  1.717353625673264E-001  1.759772260227378E-001  1.803238635055012E-001 
 1.847778629340857E-001  1.893418761485589E-001  1.940186204894283E-001  1.988108804155171E-001 
 2.037215091617798E-001  2.087534304380746E-001  2.139096401698970E-001  2.191932082820919E-001 
 2.246072805266594E-001  2.301550803556679E-001  2.358399108404541E-001  2.416651566382122E-001 
 2.476342860071686E-001  2.537508528715661E-001  2.600184989374834E-001  2.664409558612449E-001 
 2.730220474710168E-001  2.797656920435351E-001  2.866759046370286E-001  2.937567994815529E-001 
 3.010125924287396E-001  3.084476034617393E-001  3.160662592672381E-001  3.238730958711333E-001 
 3.318727613391615E-001  3.400700185442370E-001  3.484697480022783E-001  3.570769507779437E-001 
 3.658967514621478E-001  3.749344012232685E-001  3.841952809334795E-001  3.936849043725290E-001 
 4.034089215105487E-001  4.133731218718476E-001  4.235834379820781E-001  4.340459489002423E-001 
 4.447668838380733E-001  4.557526258688916E-001  4.670097157278383E-001  4.785448557063166E-001 
 4.903649136422761E-001  5.024769270092196E-001  5.148881071063464E-001  5.276058433518827E-001 
 5.406377076826747E-001  5.539914590624340E-001  5.676750481012696E-001  5.816966217893882E-001 
 5.960645283475728E-001  6.107873221977562E-001  6.258737690560583E-001  6.413328511517266E-001 
 6.571737725751770E-001  6.734059647577929E-001  6.900390920873160E-001  7.070830576618511E-001 
 7.245480091860999E-001  7.424443450130154E-001  7.607827203348357E-001  7.795740535271021E-001 
 7.988295326492285E-001  8.185606221056467E-001  8.387790694716737E-001  8.594969124876182E-001 
 8.807264862260513E-001  9.024804304358318E-001  9.247716970676162E-001  9.476135579851747E-001 
 9.710196128674163E-001  9.950037973052235E-001  1.019580391098682E+000  1.044764026758807E+000 
 1.070569698219741E+000  1.097012769765772E+000  1.124108985178996E+000  1.151874477112924E+000 
 1.180325776697594E+000  1.209479823382047E+000  1.239353975019560E+000  1.269966018202554E+000 
 1.301334178852147E+000  1.333477133069810E+000  1.366414018256638E+000  1.400164444507561E+000 
 1.434748506286909E+000  1.470186794392189E+000  1.506500408213685E+000  1.543710968296547E+000 
 1.581840629213487E+000  1.620912092755063E+000  1.660948621446098E+000  1.701974052395833E+000 
 1.744012811490001E+000  1.787089927933815E+000  1.831231049153768E+000  1.876462456067876E+000 
 1.922811078732749E+000
    </PP_RAB>
  </PP_MESH>
  <PP_NLCC type="real" size="433" columns="4">
 2.652206710121020E-002  2.652206708907384E-002  2.652206707601677E-002  2.652206706196736E-002 
 2.652206704685162E-002  2.652206703058838E-002  2.652206701309009E-002  2.652206699426365E-002 
 2.652206697400720E-002  2.652206695221332E-002  2.652206692876423E-002  2.652206690353498E-002 
 2.652206687639031E-002  2.652206684718458E-002  2.652206681576183E-002  2.652206678195334E-002 
 2.652206674557768E-002  2.652206670644068E-002  2.652206666433227E-002  2.652206661902642E-002 
 2.652206657028204E-002  2.652206651783651E-002  2.652206646140892E-002  2.652206640069847E-002 
 2.652206633537810E-002  2.652206626509925E-002  2.652206618948554E-002  2.652206610813190E-002 
 2.652206602060145E-002  2.652206592642709E-002  2.652206582510348E-002  2.652206571608791E-002 
 2.652206559879709E-002  2.652206547260313E-002  2.652206533682964E-002  2.652206519075087E-002 
 2.652206503358297E-002  2.652206486448483E-002  2.652206468255163E-002  2.652206448680935E-002 
 2.652206427620916E-002  2.652206404962425E-002  2.652206380584185E-002  2.652206354355609E-002 
 2.652206326136324E-002  2.652206295775290E-002  2.652206263110011E-002  2.652206227965576E-002 
 2.652206190153943E-002  2.652206149472746E-002  2.652206105704181E-002  2.652206058614054E-002 
 2.652206007950340E-002  2.652205953442000E-002  2.652205894797302E-002  2.652205831702394E-002 
 2.652205763819787E-002  2.652205690786210E-002  2.652205612210937E-002  2.652205527673720E-002 
 2.652205436722161E-002  2.652205338869803E-002  2.652205233593344E-002  2.652205120329535E-002 
 2.652204998472632E-002  2.652204867371056E-002  2.652204726323648E-002  2.652204574576094E-002 
 2.652204411317182E-002  2.652204235673866E-002  2.652204046707133E-002  2.652203843406747E-002 
 2.652203624686077E-002  2.652203389375891E-002  2.652203136218468E-002  2.652202863860991E-002 
 2.652202570847908E-002  2.652202255613452E-002  2.652201916473367E-002  2.652201551615673E-002 
 2.652201159091280E-002  2.652200736803401E-002  2.652200282496570E-002  2.652199793744314E-002 
 2.652199267936807E-002  2.652198702266319E-002  2.652198093712566E-002  2.652197439026877E-002 
 2.652196734714529E-002  2.652195977016280E-002  2.652195161888483E-002  2.652194284981511E-002 
 2.652193341616608E-002  2.652192326761055E-002  2.652191235001355E-002  2.652190060514748E-002 
 2.652188797037926E-002  2.652187437833942E-002  2.652185975656551E-002  2.652184402711697E-002 
 2.652182710616051E-002  2.652180890352611E-002  2.652178932223032E-002  2.652176825796140E-002 
 2.652174559852386E-002  2.652172122325041E-002  2.652169500235736E-002  2.652166679626103E-002 
 2.652163645483615E-002  2.652160381662560E-002  2.652156870798417E-002  2.652153094216103E-002 
 2.652149031831540E-002  2.652144662045253E-002  2.652139961628735E-002  2.652134905601427E-002 
 2.652129467099643E-002  2.652123617234216E-002  2.652117324938896E-002  2.652110556806584E-002 
 2.652103276913383E-002  2.652095446629761E-002  2.652087024417394E-002  2.652077965611038E-002 
 2.652068222183937E-002  2.652057742495725E-002  2.652046471021697E-002  2.652034348061721E-002 
 2.652021309427733E-002  2.652007286107444E-002  2.651992203903933E-002  2.651975983047470E-002 
 2.651958537779164E-002  2.651939775903262E-002  2.651919598307058E-002  2.651897898443958E-002 
 2.651874561779379E-002  2.651849465195276E-002  2.651822476350413E-002  2.651793452993614E-002 
 2.651762242226716E-002  2.651728679712134E-002  2.651692588823609E-002  2.651653779732825E-002 
 2.651612048430439E-002  2.651567175673992E-002  2.651518925859658E-002  2.651467045811074E-002 
 2.651411263479125E-002  2.651351286547748E-002  2.651286800937155E-002  2.651217469198840E-002 
 2.651142928793441E-002  2.651062790243583E-002  2.650976635153285E-002  2.650884014083708E-002 
 2.650784444275655E-002  2.650677407208209E-002  2.650562345981116E-002  2.650438662510152E-002 
 2.650305714520850E-002  2.650162812327678E-002  2.650009215383960E-002  2.649844128585578E-002 
 2.649666698313511E-002  2.649476008195614E-002  2.649271074569428E-002  2.649050841626764E-002 
 2.648814176216498E-002  2.648559862285207E-002  2.648286594930345E-002  2.647992974039936E-002 
 2.647677497493950E-002  2.647338553896175E-002  2.646974414808333E-002  2.646583226453966E-002 
 2.646163000858362E-002  2.645711606389419E-002  2.645226757661972E-002  2.644706004766978E-002 
 2.644146721783873E-002  2.643546094533203E-002  2.642901107525599E-002  2.642208530058160E-002 
 2.641464901410973E-002  2.640666515092211E-002  2.639809402079191E-002  2.638889312999868E-002 
 2.637901699199999E-002  2.636841692636387E-002  2.635704084537860E-002  2.634483302772640E-002 
 2.633173387861552E-002  2.631767967573389E-002  2.630260230041810E-002  2.628642895340590E-002 
 2.626908185456171E-002  2.625047792598643E-002  2.623052845792415E-002  2.620913875693659E-002 
 2.618620777583367E-002  2.616162772493202E-002  2.613528366424105E-002  2.610705307631102E-002 
 2.607680541953129E-002  2.604440166182620E-002  2.600969379482110E-002  2.597252432874183E-002 
 2.593272576849337E-002  2.589012007162349E-002  2.584451808913260E-002  2.579571899042790E-002 
 2.574350967407363E-002  2.568766416640350E-002  2.562794301056933E-002  2.556409264910274E-002 
 2.549584480372645E-002  2.542291585682090E-002  2.534500623976319E-002  2.526179983422592E-002 
 2.517296339353441E-002  2.507814599227788E-002  2.497697851363712E-002  2.486907318524496E-002 
 2.475402317595048E-002  2.463140226754601E-002  2.450076461738995E-002  2.436164462991303E-002 
 2.421355695724535E-002  2.405599665167409E-002  2.388843949529483E-002  2.371034253515006E-002 
 2.352114485522780E-002  2.332026862007955E-002  2.310712042835430E-002  2.288109301833629E-002 
 2.264156737152618E-002  2.238791526443109E-002  2.211950232295650E-002  2.183569163808424E-002 
 2.153584800578084E-002  2.121934285822573E-002  2.088555995730149E-002  2.053390192476181E-002 
 2.016379768626150E-002  1.977471090834306E-002  1.936614950812195E-002  1.893767631440542E-002 
 1.848892095584419E-002  1.801959304583963E-002  1.752949672450062E-002  1.701854660421107E-002 
 1.648678514608931E-002  1.593440146859470E-002  1.536175155516565E-002  1.476937978315266E-002 
 1.415804163921699E-002  1.352872741411579E-002  1.288268657910784E-002  1.222145243341224E-002 
 1.154686647250850E-002  1.086110175536949E-002  1.016668433842663E-002  9.466511587698897E-003 
 8.763865869069479E-003  8.062421739558621E-003  7.366244307151965E-003  6.679775878468438E-003 
 6.007807354952102E-003  5.355430048786199E-003  4.727962645246223E-003  4.130846910323054E-003 
 3.569504397776544E-003  3.049144809100553E-003  2.574514757137363E-003  2.149573425232255E-003 
 1.777078935463086E-003  1.458066067308279E-003  1.190470322257712E-003  9.677229577978784E-004 