<UPF version="2.0.1">
  <PP_INFO>
    Generated using FHI98PP, converted with fhi2upf.x v.5.0.2
    Author: Wenhui Mi
    Generation date: July 22 1018
    Pseudopotential type: SL
    Element: P
    Functional: PZ

    Suggested minimum cutoff for wavefunctions:   0. Ry
    Suggested minimum cutoff for charge density:   0. Ry
    The Pseudo was generated with a Scalar-Relativistic Calculation
    L component and cutoff radius for Local Potential:  0   0.0000

    Valence configuration: 
    nl pn  l   occ       Rcut    Rcut US       E pseu
    3s  3  0  2.00      0.000      0.000     0.000000
    3p  3  1  3.00      0.000      0.000     0.000000
    3d  3  2  0.00      0.000      0.000     0.000000

    Generation configuration: not available.
    Comment:
    Info: automatically converted from FHI format
  </PP_INFO>
  <!--                               -->
  <!-- END OF HUMAN READABLE SECTION -->
  <!--                               -->
  <PP_HEADER generated="Generated using FHI98PP, converted with fhi2upf.x v.5.0.2"
             author="unknown"
             date="unknown"
             comment="Info: automatically converted from FHI format"
             element="P "
             pseudo_type="SL"
             relativistic="scalar"
             is_ultrasoft="F"
             is_paw="F"
             is_coulomb="F"
             has_so="F"
             has_wfc="F"
             has_gipaw="F"
             paw_as_gipaw="F"
             core_correction="F"
             functional="PZ"
             z_valence="5.000000000000000E+000"
             total_psenergy="0.000000000000000E+000"
             wfc_cutoff="0.000000000000000E+000"
             rho_cutoff="0.000000000000000E+000"
             l_max="2"
             l_max_rho="0"
             l_local="0"
             mesh_size="499"
             number_of_wfc="3"
             number_of_proj="2"/>
  <PP_MESH dx="2.439988682353512E-002" mesh="499" xmin="-Infinity" rmax="7.887936198091700E+001" zmesh="0.000000000000000E+000">
    <PP_R type="real" size="499" columns="4">
 4.166666666666700E-004  4.269583333333300E-004  4.375042041666700E-004  4.483105580095800E-004 
 4.593838287924200E-004  4.707306093635900E-004  4.823576554148700E-004  4.942718895036200E-004 
 5.064804051743600E-004  5.189904711821700E-004  5.318095358203700E-004  5.449452313551300E-004 
 5.584053785696000E-004  5.721979914202700E-004  5.863312818083500E-004  6.008136644690200E-004 
 6.156537619814000E-004  6.308604099023399E-004  6.464426620269300E-004  6.624097957790000E-004 
 6.787713177347400E-004  6.955369692827800E-004  7.127167324240700E-004  7.303208357149400E-004 
 7.483597603571000E-004  7.668442464379200E-004  7.857852993249401E-004  8.051941962182700E-004 
 8.250824928648600E-004  8.454620304386200E-004  8.663449425904500E-004  8.877436626724400E-004 
 9.096709311404500E-004  9.321398031396100E-004  9.551636562771600E-004  9.787561985872099E-004 
 1.002931476692300E-003  1.027703884166600E-003  1.053088170105500E-003  1.079099447907100E-003 
 1.105753204270400E-003  1.133065308415900E-003  1.161052021533800E-003  1.189730006465700E-003 
 1.219116337625400E-003  1.249228511164700E-003  1.280084455390500E-003  1.311702541438600E-003 
 1.344101594212200E-003  1.377300903589200E-003  1.411320235907900E-003  1.446179845734800E-003 
 1.481900487924400E-003  1.518503429976200E-003  1.556010464696600E-003  1.594443923174600E-003 
 1.633826688077000E-003  1.674182207272500E-003  1.715534507792100E-003  1.757908210134600E-003 
 1.801328542924900E-003  1.845821357935200E-003  1.891413145476200E-003  1.938131050169400E-003 
 1.986002887108600E-003  2.035057158420200E-003  2.085323070233200E-003  2.136830550067900E-003 
 2.189610264654600E-003  2.243693638191600E-003  2.299112871054900E-003  2.355900958970000E-003 
 2.414091712656500E-003  2.473719777959200E-003  2.534820656474700E-003  2.597430726689700E-003 
 2.661587265638900E-003  2.727328471100200E-003  2.794693484336400E-003  2.863722413399500E-003 
 2.934456357010400E-003  3.006937429028600E-003  3.081208783525600E-003  3.157314640478700E-003 
 3.235300312098500E-003  3.315212229807300E-003  3.397097971883600E-003  3.481006291789100E-003 
 3.566987147196300E-003  3.655091729732000E-003  3.745372495456400E-003  3.837883196094200E-003 
 3.932678911037700E-003  4.029816080140400E-003  4.129352537319800E-003  4.231347544991600E-003 
 4.335861829352900E-003  4.442957616537900E-003  4.552698669666400E-003  4.665150326807200E-003 
 4.780379539879300E-003  4.898454914514300E-003  5.019446750902800E-003  5.143427085650100E-003 
 5.270469734665700E-003  5.400650337111900E-003  5.534046400438600E-003  5.670737346529400E-003 
 5.810804558988700E-003  5.954331431595700E-003  6.101403417956100E-003  6.252108082379700E-003 
 6.406535152014400E-003  6.564776570269200E-003  6.726926551554800E-003  6.893081637378200E-003 
 7.063340753821500E-003  7.237805270440900E-003  7.416579060620800E-003  7.599768563418100E-003 
 7.787482846934500E-003  7.979833673253800E-003  8.176935564983201E-003  8.378905873438300E-003 
 8.585864848512200E-003  8.797935710270400E-003  9.015244722314100E-003  9.237921266955300E-003 
 9.466097922249100E-003  9.699910540928600E-003  9.939498331289600E-003  1.018500394007200E-002 
 1.043657353739200E-002  1.069435690376600E-002  1.095850751928900E-002  1.122918265501500E-002 
 1.150654346659400E-002  1.179075509021900E-002  1.208198674094700E-002  1.238041181344900E-002 
 1.268620798524100E-002  1.299955732247600E-002  1.332064638834200E-002  1.364966635413400E-002 
 1.398681311308100E-002  1.433228739697400E-002  1.468629489567900E-002  1.504904637960200E-002 
 1.542075782517900E-002  1.580165054346000E-002  1.619195131188400E-002  1.659189250928700E-002 
 1.700171225426700E-002  1.742165454694700E-002  1.785196941425700E-002  1.829291305878900E-002 
 1.874474801134100E-002  1.920774328722100E-002  1.968217454641600E-002  2.016832425771200E-002 
 2.066648186687700E-002  2.117694396898900E-002  2.170001448502300E-002  2.223600484280300E-002 
 2.278523416242100E-002  2.334802944623200E-002  2.392472577355400E-002  2.451566650016100E-002 
 2.512120346271500E-002  2.574169718824400E-002  2.637751710879400E-002  2.702904178138100E-002 
 2.769665911338100E-002  2.838076659348200E-002  2.908177152834100E-002  2.980009128509100E-002 
 3.053615353983300E-002  3.129039653226600E-002  3.206326932661300E-002  3.285523207898100E-002 
 3.366675631133200E-002  3.449832519222100E-002  3.535043382446900E-002  3.622358953993400E-002 
 3.711831220157000E-002  3.803513451294900E-002  3.897460233541900E-002  3.993727501310300E-002 
 4.092372570592700E-002  4.193454173086400E-002  4.297032491161600E-002  4.403169193693300E-002 
 4.511927472777500E-002  4.623372081355100E-002  4.737569371764600E-002  4.854587335247200E-002 
 4.974495642427800E-002  5.097365684795700E-002  5.223270617210200E-002  5.352285401455300E-002 
 5.484486850871200E-002  5.619953676087700E-002  5.758766531887100E-002  5.901008065224700E-002 
 6.046762964435800E-002  6.196118009657300E-002  6.349162124495900E-002  6.505986428970900E-002 
 6.666684293766501E-002  6.831351395822501E-002  7.000085775299300E-002  7.172987893949200E-002 
 7.350160694929800E-002  7.531709664094501E-002  7.717742892797699E-002  7.908371142249800E-002 
 8.103707909463299E-002  8.303869494827100E-002  8.508975071349301E-002  8.719146755611600E-002 
 8.934509680475300E-002  9.155192069583000E-002  9.381325313701699E-002  9.613044048950101E-002 
 9.850486236959199E-002  1.009379324701200E-001  1.034310994021300E-001  1.059858475573700E-001 
 1.086036979920300E-001  1.112862093324400E-001  1.140349787029500E-001  1.168516426769100E-001 
 1.197378782510300E-001  1.226954038438300E-001  1.257259803187700E-001  1.288314120326500E-001 
 1.320135479098500E-001  1.352742825432300E-001  1.386155573220400E-001  1.420393615879000E-001 
 1.455477338191200E-001  1.491427628444500E-001  1.528265890867100E-001  1.566014058371500E-001 
 1.604694605613300E-001  1.644330562371900E-001  1.684945527262500E-001  1.726563681785900E-001 
 1.769209804726000E-001  1.812909286902700E-001  1.857688146289200E-001  1.903573043502600E-001 
 1.950591297677100E-001  1.998770902729700E-001  2.048140544027100E-001  2.098729615464600E-001 
 2.150568236966600E-001  2.203687272419700E-001  2.258118348048400E-001  2.313893871245200E-001 
 2.371047049865000E-001  2.429611911996700E-001  2.489623326223000E-001  2.551117022380700E-001 
 2.614129612833500E-001  2.678698614270500E-001  2.744862470042900E-001  2.812660573053000E-001 
 2.882133289207400E-001  2.953321981450800E-001  3.026269034392700E-001  3.101017879542200E-001 
 3.177613021166900E-001  3.256100062789700E-001  3.336525734340600E-001  3.418937919978800E-001 
 3.503385686602300E-001  3.589919313061400E-001  3.678590320094000E-001  3.769451501000300E-001 
 3.862556953075000E-001  3.957962109816000E-001  4.055723773928400E-001  4.155900151144400E-001 
 4.258550884877700E-001  4.363737091734200E-001  4.471521397900000E-001  4.581967976428200E-001 
 4.695142585445900E-001  4.811112607306400E-001  4.929947088706900E-001  5.051716781798000E-001 
 5.176494186308400E-001  5.304353592710200E-001  5.435371126450100E-001  5.569624793273500E-001 
 5.707194525667300E-001  5.848162230451300E-001  5.992611837543400E-001  6.140629349930800E-001 
 6.292302894874000E-001  6.447722776377400E-001  6.606981528954000E-001  6.770173972719100E-001 
 6.937397269845300E-001  7.108750982410500E-001  7.284337131676000E-001  7.464260258828400E-001 
 7.648627487221500E-001  7.837548586155800E-001  8.031136036233900E-001  8.229505096328900E-001 
 8.432773872208200E-001  8.641063386851700E-001  8.854497652507000E-001  9.073203744523900E-001 
 9.297311877013600E-001  9.526955480375801E-001  9.762271280741101E-001  1.000339938137500E+000 
 1.025048334609500E+000  1.050367028474400E+000  1.076311094077700E+000  1.102895978101400E+000 
 1.130137508760500E+000  1.158051905226900E+000  1.186655787286000E+000  1.215966185232000E+000 
 1.246000550007200E+000  1.276776763592400E+000  1.308313149653100E+000  1.340628484449600E+000 
 1.373742008015500E+000  1.407673435613500E+000  1.442442969473100E+000  1.478071310819100E+000 
 1.514579672196300E+000  1.551989790099600E+000  1.590323937915000E+000  1.629604939181500E+000 
 1.669856181179300E+000  1.711101628854400E+000  1.753365839087200E+000  1.796673975312600E+000 
 1.841051822502800E+000  1.886525802518600E+000  1.933122989840900E+000  1.980871127689900E+000 
 2.029798644543900E+000  2.079934671064100E+000  2.131309057439400E+000  2.183952391158100E+000 
 2.237896015219700E+000  2.293172046795700E+000  2.349813396351500E+000  2.407853787241400E+000 
 2.467327775786300E+000  2.528270771848200E+000  2.590719059912800E+000  2.654709820692700E+000 
 2.720281153263800E+000  2.787472097749400E+000  2.856322658563800E+000  2.926873828230300E+000 
 2.999167611787600E+000  3.073247051798800E+000  3.149156253978200E+000  3.226940413451500E+000 
 3.306645841663700E+000  3.388319993952800E+000  3.472011497803500E+000  3.557770181799200E+000 
 3.645647105289600E+000  3.735694588790300E+000  3.827966245133400E+000  3.922517011388200E+000 
 4.019403181569500E+000  4.118682440154300E+000  4.220413896426100E+000  4.324658119667800E+000 
 4.431477175223600E+000  4.540934661451600E+000  4.653095747589500E+000  4.768027212554900E+000 
 4.885797484705000E+000  5.006476682577300E+000  5.130136656636900E+000  5.256851032055800E+000 
 5.386695252547600E+000  5.519746625285500E+000  5.656084366930100E+000  5.795789650793300E+000 
 5.938945655167900E+000  6.085637612850500E+000  6.235952861887900E+000  6.389980897576500E+000 
 6.547813425746700E+000  6.709544417362600E+000  6.875270164471500E+000  7.045089337533900E+000 
 7.219103044171000E+000  7.397414889362000E+000  7.580131037129300E+000  7.767360273746400E+000 
 7.959214072507900E+000  8.155806660098900E+000  8.357255084603301E+000  8.563679285193000E+000 
 8.775202163537299E+000  8.991949656976599E+000  9.214050813504000E+000  9.441637868597500E+000 
 9.674846323951900E+000  9.913815028153500E+000  1.015868625934900E+001  1.040960580995500E+001 
 1.066672307346100E+001  1.093019113337500E+001  1.120016685437000E+001  1.147681097567200E+001 
 1.176028820677200E+001  1.205076732547900E+001  1.234842127841800E+001  1.265342728399500E+001 
 1.296596693791000E+001  1.328622632127600E+001  1.361439611141200E+001  1.395067169536300E+001 
 1.429525328623900E+001  1.464834604240900E+001  1.501016018965700E+001  1.538091114634100E+001 
 1.576081965165600E+001  1.615011189705200E+001  1.654901966090900E+001  1.695778044653300E+001 
 1.737663762356300E+001  1.780584057286500E+001  1.824564483501400E+001  1.869631226243900E+001 
 1.915811117532100E+001  1.963131652135200E+001  2.011621003942900E+001  2.061308042740300E+001 
 2.112222351396000E+001  2.164394243475500E+001  2.217854781289300E+001  2.272635794387200E+001 
 2.328769898508500E+001  2.386290515001700E+001  2.445231890722200E+001  2.505629118423100E+001 
 2.567518157648100E+001  2.630935856142000E+001  2.695919971788700E+001  2.762509195091900E+001 
 2.830743172210700E+001  2.900662528564300E+001  2.972308893019800E+001  3.045724922677400E+001 
 3.120954328267600E+001  3.198041900175800E+001  3.277033535110100E+001  3.357976263427300E+001 
 3.440918277134000E+001  3.525908958579200E+001  3.612998909856100E+001  3.702239982929600E+001 
 3.793685310507900E+001  3.887389337677500E+001  3.983407854318100E+001  4.081798028319700E+001 
 4.182618439619200E+001  4.285929115077800E+001  4.391791564220300E+001  4.500268815856500E+001 
 4.611425455608200E+001  4.725327664361700E+001  4.842043257671400E+001  4.961641726135900E+001 
 5.084194276771400E+001  5.209773875407700E+001  5.338455290130300E+001  5.470315135796500E+001 
 5.605431919650700E+001  5.743886088066000E+001  5.885760074441300E+001  6.031138348280000E+001 
 6.180107465482500E+001  6.332756119879900E+001  6.489175196040900E+001  6.649457823383101E+001 
 6.813699431620699E+001  6.981997807581700E+001  7.154453153429000E+001  7.331168146318700E+001 
 7.512247999532801E+001  7.697800525121200E+001  7.887936198091700E+001
    </PP_R>
    <PP_RAB type="real" size="499" columns="4">
 1.016661950980638E-005  1.041773501169843E-005  1.067505306648755E-005  1.093872687722963E-005 
 1.120891343109728E-005  1.148577359284532E-005  1.176947220058858E-005  1.206017816394318E-005 
 1.235806456459260E-005  1.266330875933811E-005  1.297609248569377E-005  1.329660197009033E-005 
 1.362502803875152E-005  1.396156623130871E-005  1.430641691722202E-005  1.465978541507749E-005 
 1.502188211482979E-005  1.539292260306607E-005  1.577312779136186E-005  1.616272404780861E-005 
 1.656194333178945E-005  1.697102333208445E-005  1.739020760838707E-005  1.781974573631412E-005 
 1.825989345600110E-005  1.871091282436432E-005  1.917307237112621E-005  1.964664725869312E-005 
 2.013191944598281E-005  2.062917785629853E-005  2.113871854934901E-005  2.166084489751808E-005 
 2.219586776648679E-005  2.274410570031879E-005  2.330588511111670E-005  2.388154047336139E-005 
 2.447141452305307E-005  2.507585846177249E-005  2.569523216577790E-005  2.632990440027247E-005 
 2.698025303895907E-005  2.764666528902188E-005  2.832953792166138E-005  2.902927750832679E-005 
 2.974630066278239E-005  3.048103428915196E-005  3.123391583609479E-005  3.200539355724523E-005 
 3.279592677811080E-005  3.360598616952914E-005  3.443605402791764E-005  3.528662456240660E-005 
 3.615820418909684E-005  3.705131183256917E-005  3.796647923483333E-005  3.890425127193357E-005 
 3.986518627835002E-005  4.084985637942521E-005  4.185884783199627E-005  4.289276137344743E-005 
 4.395221257937099E-005  4.503783223008279E-005  4.615026668616585E-005  4.729017827331263E-005 
 4.845824567666384E-005  4.965516434487786E-005  5.088164690419686E-005  5.213842358272905E-005 
 5.342624264522303E-005  5.474587083856080E-005  5.609809384827245E-005  5.748371676632586E-005 
 5.890356457045267E-005  6.035848261534491E-005  6.184933713594168E-005  6.337701576320126E-005 
 6.494242805255147E-005  6.654650602544996E-005  6.819020472427918E-005  6.987450278096866E-005 
 7.160040299965694E-005  7.336893295374951E-005  7.518114559770697E-005  7.703811989397076E-005 
 7.894096145535125E-005  8.089080320329763E-005  8.288880604242054E-005  8.493615955166771E-005 
 8.703408269259414E-005  8.918382453510003E-005  9.138666500111747E-005  9.364391562664574E-005 
 9.595692034262324E-005  9.832705627508769E-005  1.007557345650807E-004  1.032444012088382E-004 
 1.057945379186967E-004  1.084076630052881E-004  1.110853322815191E-004  1.138291399888736E-004 
 1.166407197465978E-004  1.195217455243383E-004  1.224739326387894E-004  1.254990387749675E-004 
 1.285988650327103E-004  1.317752569990172E-004  1.350301058468938E-004  1.383653494613112E-004 
 1.417829735930062E-004  1.452850130407530E-004  1.488735528628592E-004  1.525507296185739E-004 
 1.563187326401507E-004  1.601798053363636E-004  1.641362465281705E-004  1.681904118174162E-004 
 1.723447149893079E-004  1.766016294495440E-004  1.809636896969479E-004  1.854334928324617E-004 
 1.900137001054229E-004  1.947070384980273E-004  1.995163023489293E-004  2.044443550169482E-004 
 2.094941305858662E-004  2.146686356113358E-004  2.199709509109363E-004  2.254042333984375E-004 
 2.309717179633790E-004  2.366767193970732E-004  2.425226343661824E-004  2.485129434350161E-004 
 2.546512131378664E-004  2.609410981023819E-004  2.673863432255102E-004  2.739907859031696E-004 
 2.807583583149811E-004  2.876930897653642E-004  2.947991090825587E-004  3.020806470769128E-004 
 3.095420390597079E-004  3.171877274244716E-004  3.250222642918766E-004  3.330503142198849E-004 
 3.412766569811133E-004  3.497061904085444E-004  3.583439333116292E-004  3.671950284644198E-004 
 3.762647456675112E-004  3.855584848854762E-004  3.950817794621606E-004  4.048402994148629E-004 
 4.148398548104249E-004  4.250863992242329E-004  4.355860332850814E-004  4.463450083072192E-004 
 4.573697300124054E-004  4.686667623437088E-004  4.802428313736141E-004  4.921048293085307E-004 
 5.042598185924397E-004  5.167150361116762E-004  5.294778975036340E-004  5.425560015719721E-004 
 5.559571348108185E-004  5.696892760406262E-004  5.837606011588314E-004  5.981794880074598E-004 
 6.129545213612446E-004  6.280944980388658E-004  6.436084321404349E-004  6.595055604142985E-004 
 6.757953477565291E-004  6.924874928461273E-004  7.095919339194264E-004  7.271188546872357E-004 
 7.450786903980166E-004  7.634821340508262E-004  7.823401427618824E-004  8.016639442881170E-004 
 8.214650437120375E-004  8.417552302917029E-004  8.625465844799115E-004  8.838514851165802E-004 
 9.056826167989507E-004  9.280529774338903E-004  9.509758859765113E-004  9.744649903601103E-004 
 9.985342756220136E-004  1.023198072229892E-003  1.048471064613962E-003  1.074368299909929E-003 
 1.100905196917698E-003  1.128097555281565E-003  1.155961564897026E-003  1.184513815549986E-003 
 1.213771306794070E-003  1.243751458071867E-003  1.274472119086253E-003  1.305951580427686E-003 
 1.338208584464238E-003  1.371262336500500E-003  1.405132516212071E-003  1.439839289362506E-003 
 1.475403319809772E-003  1.511845781809058E-003  1.549188372619757E-003  1.587453325423454E-003 
 1.626663422561418E-003  1.666842009098677E-003  1.708013006723410E-003  1.750200927989480E-003 
 1.793430890910834E-003  1.837728633916315E-003  1.883120531174064E-003  1.929633608294063E-003 
 1.977295558418909E-003  2.026134758711870E-003  2.076180287252046E-003  2.127461940347164E-003 
 2.180010250273763E-003  2.233856503455515E-003  2.289032759090866E-003  2.345571868240403E-003 
 2.403507493385948E-003  2.462874128472559E-003  2.523707119445783E-003  2.586042685296274E-003 
 2.649917939622921E-003  2.715370912731774E-003  2.782440574276218E-003  2.851166856460771E-003 
 2.921590677815359E-003  2.993753967557388E-003  3.067699690555992E-003  3.143471872912881E-003 
 3.221115628173672E-003  3.300677184189725E-003  3.382203910639021E-003  3.465744347231942E-003 
 3.551348232608543E-003  3.639066533953919E-003  3.728951477342632E-003  3.821056578832952E-003 
 3.915436676330184E-003  4.012147962235422E-003  4.111248016902671E-003  4.212795842920207E-003 
 4.316851900240307E-003  4.423478142176164E-003  4.532738052287924E-003  4.644696682179573E-003 
 4.759420690229375E-003  4.876978381277980E-003  4.997439747295490E-003  5.120876509053763E-003 
 5.247362158827450E-003  5.376972004150550E-003  5.509783212652905E-003  5.645874858005443E-003 
 5.785327966998283E-003  5.928225567783225E-003  6.074652739307426E-003  6.224696661968300E-003 
 6.378446669518908E-003  6.535994302256056E-003  6.697433361521582E-003  6.862859965551265E-003 
 7.032372606700357E-003  7.206072210085801E-003  7.384062193675080E-003  7.566448529858855E-003 
 7.753339808546388E-003  7.944847301817428E-003  8.141085030172305E-003  8.342169830417530E-003 
 8.548221425228901E-003  8.759362494432111E-003  8.975718748044544E-003  9.197419001121190E-003 
 9.424595250448866E-003  9.657382753135069E-003  9.895920107137371E-003  1.014034933378359E-002 
 1.039081596232812E-002  1.064746911659768E-002  1.091046160377756E-002  1.117995000539103E-002 
 1.145609477052400E-002  1.173906031135591E-002  1.202901510104648E-002  1.232613177404243E-002 
 1.263058722886125E-002  1.294256273341408E-002  1.326224403292930E-002  1.358982146054286E-002 
 1.392549005061813E-002  1.426944965486844E-002  1.462190506134358E-002  1.498306611635896E-002 
 1.535314784943280E-002  1.573237060131382E-002  1.612096015516646E-002  1.651914787099892E-002 
 1.692717082341269E-002  1.734527194275103E-002  1.777370015973688E-002  1.821271055368240E-002 
 1.866256450435844E-002  1.912352984761592E-002  1.959588103485216E-002  2.007989929641307E-002 
 2.057587280903441E-002  2.108409686741745E-002  2.160487406004282E-002  2.213851444932582E-002 
 2.268533575622407E-002  2.324566354940272E-002  2.381983143907301E-002  2.440818127561712E-002 
 2.501106335312496E-002  2.562883661794825E-002  2.626186888241114E-002  2.691053704380623E-002 
 2.757522730878813E-002  2.825633542331558E-002  2.895426690827137E-002  2.966943730090655E-002 
 3.040227240223819E-002  3.115320853057402E-002  3.192269278127841E-002  3.271118329297765E-002 
 3.351914952031408E-002  3.434707251346625E-002  3.519544520454757E-002  3.606477270110024E-002 
 3.695557258681664E-002  3.786837522971227E-002  3.880372409788470E-002  3.976217608310243E-002 
 4.074430183235548E-002  4.175068608761396E-002  4.278192803398037E-002  4.383864165641838E-002 
 4.492145610533139E-002  4.603101607113261E-002  4.716798216809179E-002  4.833303132764195E-002 
 4.952685720143615E-002  5.075017057431079E-002  5.200369978749667E-002  5.328819117224654E-002 
 5.460440949420091E-002  5.595313840870946E-002  5.733518092740328E-002  5.875135989631057E-002 
 6.020251848575036E-002  6.168952069234786E-002  6.321325185344763E-002  6.477461917422909E-002 
 6.637455226783232E-002  6.801400370884739E-002  6.969394960045568E-002  7.141539015558629E-002 
 7.317935029242956E-002  7.498688024465371E-002  7.683905618669590E-002  7.873698087450823E-002 
 8.068178430210732E-002  8.267462437436952E-002  8.471668759641805E-002  8.680918978004845E-002 
 8.895337676761467E-002  9.115052517377589E-002  9.340194314556766E-002  9.570897114126331E-002 
 9.807298272845280E-002  1.004953854018464E-001  1.029776214212717E-001  1.055211686703765E-001 
 1.081275415365350E-001  1.107982918124868E-001  1.135350096202564E-001  1.163393243578752E-001 
 1.192129056695146E-001  1.221574644395537E-001  1.251747538112092E-001  1.282665702303453E-001 
 1.314347545150354E-001  1.346811929515561E-001  1.380078184174607E-001  1.414166115323727E-001 
 1.449096018372224E-001  1.484888690026007E-001  1.521565440669647E-001  1.559148107054180E-001 
 1.597659065298433E-001  1.637121244211293E-001  1.677558138943323E-001  1.718993824975212E-001 
 1.761452972452102E-001  1.804960860871664E-001  1.849543394135208E-001  1.895227115970349E-001 
 1.942039225734808E-001  1.990007594610471E-001  2.039160782197340E-001  2.089528053517614E-001 
 2.141139396439506E-001  2.194025539531545E-001  2.248217970357993E-001  2.303748954225824E-001 
 2.360651553395212E-001  2.418959646764071E-001  2.478707950039170E-001  2.539932036405156E-001 
 2.602668357704391E-001  2.666954266139571E-001  2.732828036513374E-001  2.800328889015025E-001 
 2.869497012573916E-001  2.940373588784426E-001  3.013000816427321E-001  3.087421936593094E-001 
 3.163681258427022E-001  3.241824185510078E-001  3.321897242892295E-001  3.403948104791520E-001 
 3.488025622980001E-001  3.574179855867582E-001  3.662462098307633E-001  3.752924912135703E-001 
 3.845622157465546E-001  3.940609024754969E-001  4.037942067666372E-001  4.137679236737621E-001 
 4.239879913885194E-001  4.344604947758158E-001  4.451916689967598E-001  4.561879032209835E-001 
 4.674557444305358E-001  4.790019013179840E-001  4.908332482805285E-001  5.029568295130601E-001 
 5.153798632020363E-001  5.281097458231312E-001  5.411540565449516E-001  5.545205617416251E-001 
 5.682172196166277E-001  5.822521849411681E-001  5.966338139092048E-001  6.113706691127772E-001 
 6.264715246398505E-001  6.419453712984529E-001  6.578014219695227E-001  6.740491170921746E-001 
 6.906981302843587E-001  7.077583741023813E-001  7.252400059427008E-001  7.431534340894882E-001 
 7.615093239115153E-001  7.803186042121273E-001  7.995924737361564E-001  8.193424078374348E-001 
 8.395801653110305E-001  8.603177953942106E-001  8.815676449404460E-001  9.033423657704883E-001 
 9.256549222050046E-001  9.485185987834815E-001  9.719470081734252E-001  9.959540992752949E-001 
 1.020554165527395E+000  1.045761853415923E+000  1.071592171195316E+000  1.098060497823830E+000 
 1.125182592120090E+000  1.152974602145450E+000  1.181453074818435E+000  1.210634965766454E+000 
 1.240537649420872E+000  1.271178929361579E+000  1.302577048916817E+000  1.334750702025058E+000 
 1.367719044365083E+000  1.401501704760883E+000  1.436118796868494E+000  1.471590931151145E+000 
 1.507939227150575E+000  1.545185326061190E+000  1.583351403614893E+000  1.622460183284179E+000 
 1.662534949811306E+000  1.703599563071638E+000  1.745678472279516E+000  1.788796730544820E+000 
 1.832980009789285E+000  1.878254616031065E+000  1.924647505047034E+000
    </PP_RAB>
  </PP_MESH>
  <PP_LOCAL type="real" size="499" columns="4">
-2.336878597085800E+000 -2.336878991090200E+000 -2.336879386717400E+000 -2.336879784484000E+000 
-2.336880184922800E+000 -2.336880588582200E+000 -2.336880996028000E+000 -2.336881407845600E+000 
-2.336881824639000E+000 -2.336882247033600E+000 -2.336882675677000E+000 -2.336883111240200E+000 
-2.336883554419000E+000 -2.336884005936000E+000 -2.336884466541200E+000 -2.336884937014800E+000 
-2.336885418167200E+000 -2.336885910842200E+000 -2.336886415918600E+000 -2.336886934311400E+000 
-2.336887466974400E+000 -2.336888014902400E+000 -2.336888579132400E+000 -2.336889160747600E+000 
-2.336889760878800E+000 -2.336890380706200E+000 -2.336891021463800E+000 -2.336891684440800E+000 
-2.336892370985400E+000 -2.336893082507200E+000 -2.336893820480800E+000 -2.336894586449400E+000 
-2.336895382027400E+000 -2.336896208905400E+000 -2.336897068853000E+000 -2.336897963724200E+000 
-2.336898895459800E+000 -2.336899866093800E+000 -2.336900877756600E+000 -2.336901932681400E+000 
-2.336903033208400E+000 -2.336904181790400E+000 -2.336905380999000E+000 -2.336906633530400E+000 
-2.336907942211000E+000 -2.336909310005600E+000 -2.336910740022600E+000 -2.336912235522800E+000 
-2.336913799926600E+000 -2.336915436821400E+000 -2.336917149970600E+000 -2.336918943323000E+000 
-2.336920821020800E+000 -2.336922787411000E+000 -2.336924847054600E+000 -2.336927004737200E+000 
-2.336929265481000E+000 -2.336931634557000E+000 -2.336934117496000E+000 -2.336936720103400E+000 
-2.336939448472000E+000 -2.336942308996600E+000 -2.336945308389000E+000 -2.336948453694400E+000 
-2.336951752307800E+000 -2.336955211991400E+000 -2.336958840893600E+000 -2.336962647567800E+000 
-2.336966640992800E+000 -2.336970830594000E+000 -2.336975226266600E+000 -2.336979838397800E+000 
-2.336984677892400E+000 -2.336989756199000E+000 -2.336995085335800E+000 -2.337000677920800E+000 
-2.337006547200600E+000 -2.337012707082400E+000 -2.337019172167400E+000 -2.337025957784600E+000 
-2.337033080027400E+000 -2.337040555793200E+000 -2.337048402821800E+000 -2.337056639738400E+000 
-2.337065286098000E+000 -2.337074362432000E+000 -2.337083890296000E+000 -2.337093892322200E+000 
-2.337104392272600E+000 -2.337115415095800E+000 -2.337126986985800E+000 -2.337139135445400E+000 
-2.337151889349800E+000 -2.337165279017200E+000 -2.337179336279000E+000 -2.337194094556800E+000 
-2.337209588941400E+000 -2.337225856276000E+000 -2.337242935244200E+000 -2.337260866460800E+000 
-2.337279692570000E+000 -2.337299458345400E+000 -2.337320210796600E+000 -2.337341999281200E+000 
-2.337364875621800E+000 -2.337388894228400E+000 -2.337414112229200E+000 -2.337440589604200E+000 
-2.337468389329400E+000 -2.337497577524600E+000 -2.337528223611400E+000 -2.337560400477400E+000 
-2.337594184649600E+000 -2.337629656474200E+000 -2.337666900309600E+000 -2.337706004724400E+000 
-2.337747062707200E+000 -2.337790171888600E+000 -2.337835434771000E+000 -2.337882958970600E+000 
-2.337932857474600E+000 -2.337985248906000E+000 -2.338040257805400E+000 -2.338098014925400E+000 
-2.338158657539400E+000 -2.338222329766000E+000 -2.338289182909400E+000 -2.338359375817000E+000 
-2.338433075253200E+000 -2.338510456293600E+000 -2.338591702737600E+000 -2.338677007541400E+000 
-2.338766573272400E+000 -2.338860612585400E+000 -2.338959348724000E+000 -2.339063016044600E+000 
-2.339171860566600E+000 -2.339286140551000E+000 -2.339406127105400E+000 -2.339532104819800E+000 
-2.339664372432600E+000 -2.339803243531400E+000 -2.339949047283600E+000 -2.340102129207400E+000 
-2.340262851977400E+000 -2.340431596269800E+000 -2.340608761649600E+000 -2.340794767499000E+000 