<UPF version="2.0.1">
  <PP_INFO>
    local psp - psp6 format
    47.000    19.000   20210830  zatom,zion,pspd
    6  11  0  0    1089 0  pspcode,pspxc,lmax,lloc,mmax,r2well
    0   0   0    rchrg,fchrg,qchrg
    5---- no use
    6---- no use
    7---- no use
    1.9000E+01  1    zion   lmax+1
    0.0000    0.0000    0.0000   0.0000
    0.0000    0.0000    0.0000
    0.0000    0.0000    0.0000
    0.0000    0.0000    0.0000
    0.0000    0.0000    0.0000
    0.0000    0.0000    0.0000
    0.0000    0.0000    0.0000
    0.0000    0.0000    0.0000
    0.0000    0.0000    0.0000
    0.0000    0.0000    0.0000
    md5 addea34886e5d75914d6d05e33e6f3bf ag_lps.cpi
  </PP_INFO>
  <!--                               -->
  <!-- END OF HUMAN READABLE SECTION -->
  <!--                               -->
  <PP_HEADER
            generated="DFTpy"
            author="shaoxc"
            date="Wed Apr 17 11:10:24 2024"
            comment=""
            element="Ag"
            pseudo_type="NC"
            relativistic="nonrelativistic"
            is_ultrasoft="F"
            is_paw="F"
            is_coulomb="F"
            has_so="F"
            has_wfc="F"
            has_gipaw="F"
            paw_as_gipaw="F"
            core_correction="F"
            functional="pbe"
            z_valence="19.0"
            total_psenergy="0.0"
            wfc_cutoff="0.0"
            rho_cutoff="0.0"
            l_max="1"
            l_max_rho="0"
            l_local="-1"
            mesh_size="1089"
            number_of_wfc="0"
            number_of_proj="1"/>
  <PP_MESH>
    <PP_R type="real" size="1089" columns="4">
             1.329787234043000E-04     1.346143617021000E-04     1.362701183511000E-04     1.379462408068000E-04
             1.396429795687000E-04     1.413605882174000E-04     1.430993234525000E-04     1.448594451309000E-04
             1.466412163061000E-04     1.484449032666000E-04     1.502707755768000E-04     1.521191061164000E-04
             1.539901711216000E-04     1.558842502264000E-04     1.578016265042000E-04     1.597425865102000E-04
             1.617074203243000E-04     1.636964215943000E-04     1.657098875799000E-04     1.677481191971000E-04
             1.698114210632000E-04     1.719001015423000E-04     1.740144727913000E-04     1.761548508066000E-04
             1.783215554715000E-04     1.805149106038000E-04     1.827352440043000E-04     1.849828875055000E-04
             1.872581770218000E-04     1.895614525992000E-04     1.918930584662000E-04     1.942533430853000E-04
             1.966426592053000E-04     1.990613639135000E-04     2.015098186896000E-04     2.039883894595000E-04
             2.064974466499000E-04     2.090373652436000E-04     2.116085248361000E-04     2.142113096916000E-04
             2.168461088008000E-04     2.195133159391000E-04     2.222133297251000E-04     2.249465536807000E-04
             2.277133962910000E-04     2.305142710654000E-04     2.333495965995000E-04     2.362197966377000E-04
             2.391253001363000E-04     2.420665413280000E-04     2.450439597863000E-04     2.480580004917000E-04
             2.511091138978000E-04     2.541977559987000E-04     2.573243883975000E-04     2.604894783748000E-04
             2.636934989588000E-04     2.669369289960000E-04     2.702202532226000E-04     2.735439623373000E-04
             2.769085530740000E-04     2.803145282768000E-04     2.837623969746000E-04     2.872526744574000E-04
             2.907858823532000E-04     2.943625487062000E-04     2.979832080553000E-04     3.016484015143000E-04
             3.053586768530000E-04     3.091145885783000E-04     3.129166980178000E-04     3.167655734034000E-04
             3.206617899563000E-04     3.246059299727000E-04     3.285985829114000E-04     3.326403454812000E-04
             3.367318217306000E-04     3.408736231379000E-04     3.450663687025000E-04     3.493106850375000E-04
             3.536072064635000E-04     3.579565751030000E-04     3.623594409768000E-04     3.668164621008000E-04
             3.713283045846000E-04     3.758956427310000E-04     3.805191591366000E-04     3.851995447940000E-04
             3.899374991950000E-04     3.947337304350000E-04     3.995889553194000E-04     4.045038994698000E-04
             4.094792974333000E-04     4.145158927917000E-04     4.196144382731000E-04     4.247756958638000E-04
             4.300004369230000E-04     4.352894422971000E-04     4.406435024374000E-04     4.460634175174000E-04
             4.515499975528000E-04     4.571040625227000E-04     4.627264424917000E-04     4.684179777344000E-04
             4.741795188605000E-04     4.800119269425000E-04     4.859160736439000E-04     4.918928413497000E-04
             4.979431232983000E-04     5.040678237149000E-04     5.102678579466000E-04     5.165441525993000E-04
             5.228976456763000E-04     5.293292867181000E-04     5.358400369447000E-04     5.424308693992000E-04
             5.491027690928000E-04     5.558567331526000E-04     5.626937709704000E-04     5.696149043533000E-04
             5.766211676769000E-04     5.837136080393000E-04     5.908932854182000E-04     5.981612728288000E-04
             6.055186564846000E-04     6.129665359594000E-04     6.205060243517000E-04     6.281382484512000E-04
             6.358643489072000E-04     6.436854803986999E-04     6.516028118076000E-04     6.596175263929000E-04
             6.677308219675000E-04     6.759439110777000E-04     6.842580211839000E-04     6.926743948445000E-04
             7.011942899011000E-04     7.098189796669000E-04     7.185497531168000E-04     7.273879150801000E-04
             7.363347864356000E-04     7.453917043088000E-04     7.545600222718000E-04     7.638411105457000E-04
             7.732363562054000E-04     7.827471633867000E-04     7.923749534964000E-04     8.021211654244000E-04
             8.119872557591000E-04     8.219746990050000E-04     8.320849878027000E-04     8.423196331527000E-04
             8.526801646405000E-04     8.631681306656000E-04     8.737850986727000E-04     8.845326553864000E-04
             8.954124070477000E-04     9.064259796544000E-04     9.175750192041000E-04     9.288611919403000E-04
             9.402861846012000E-04     9.518517046717999E-04     9.635594806392000E-04     9.754112622511000E-04
             9.874088207768000E-04     9.995539492722999E-04     1.011848462848000E-03     1.024294198941000E-03
             1.036893017588000E-03     1.049646801705000E-03     1.062557457366000E-03     1.075626914091000E-03
             1.088857125135000E-03     1.102250067774000E-03     1.115807743607000E-03     1.129532178854000E-03
             1.143425424654000E-03     1.157489557377000E-03     1.171726678933000E-03     1.186138917084000E-03
             1.200728425764000E-03     1.215497385401000E-03     1.230448003241000E-03     1.245582513681000E-03
             1.260903178599000E-03     1.276412287696000E-03     1.292112158835000E-03     1.308005138388000E-03
             1.324093601590000E-03     1.340379952890000E-03     1.356866626310000E-03     1.373556085814000E-03
             1.390450825670000E-03     1.407553370825000E-03     1.424866277287000E-03     1.442392132497000E-03
             1.460133555727000E-03     1.478093198462000E-03     1.496273744803000E-03     1.514677911865000E-03
             1.533308450180000E-03     1.552168144118000E-03     1.571259812290000E-03     1.590586307981000E-03
             1.610150519570000E-03     1.629955370960000E-03     1.650003822023000E-03     1.670298869034000E-03
             1.690843545123000E-03     1.711640920728000E-03     1.732694104053000E-03     1.754006241533000E-03
             1.775580518304000E-03     1.797420158679000E-03     1.819528426631000E-03     1.841908626278000E-03
             1.864564102381000E-03     1.887498240841000E-03     1.910714469203000E-03     1.934216257174000E-03
             1.958007117138000E-03     1.982090604678000E-03     2.006470319116000E-03     2.031149904041000E-03
             2.056133047861000E-03     2.081423484349000E-03     2.107024993207000E-03     2.132941400623000E-03
             2.159176579851000E-03     2.185734451783000E-03     2.212618985540000E-03     2.239834199062000E-03
             2.267384159711000E-03     2.295272984875000E-03     2.323504842589000E-03     2.352083952153000E-03
             2.381014584765000E-03     2.410301064157000E-03     2.439947767246000E-03     2.469959124783000E-03
             2.500339622018000E-03     2.531093799369000E-03     2.562226253101000E-03     2.593741636014000E-03
             2.625644658137000E-03     2.657940087432000E-03     2.690632750508000E-03     2.723727533339000E-03
             2.757229381999000E-03     2.791143303398000E-03     2.825474366029000E-03     2.860227700732000E-03
             2.895408501451000E-03     2.931022026018000E-03     2.967073596939000E-03     3.003568602181000E-03
             3.040512495988000E-03     3.077910799688000E-03     3.115769102525000E-03     3.154093062486000E-03
             3.192888407154000E-03     3.232160934562000E-03     3.271916514057000E-03     3.312161087180000E-03
             3.352900668553000E-03     3.394141346776000E-03     3.435889285341000E-03     3.478150723551000E-03
             3.520931977450000E-03     3.564239440773000E-03     3.608079585895000E-03     3.652458964801000E-03
             3.697384210068000E-03     3.742862035852000E-03     3.788899238893000E-03     3.835502699531000E-03
             3.882679382736000E-03     3.930436339143000E-03     3.978780706115000E-03     4.027719708800000E-03
             4.077260661218000E-03     4.127410967351000E-03     4.178178122249000E-03     4.229569713153000E-03
             4.281593420625000E-03     4.334257019699000E-03     4.387568381041000E-03     4.441535472128000E-03
             4.496166358435000E-03     4.551469204644000E-03     4.607452275861000E-03     4.664123938854000E-03
             4.721492663302000E-03     4.779567023060000E-03     4.838355697444000E-03     4.897867472523000E-03
             4.958111242435000E-03     5.019096010717000E-03     5.080830891648000E-03     5.143325111616000E-03
             5.206588010488000E-03     5.270629043017000E-03     5.335457780247000E-03     5.401083910944000E-03
             5.467517243048000E-03     5.534767705138000E-03     5.602845347911000E-03     5.671760345690000E-03
             5.741522997942000E-03     5.812143730817000E-03     5.883633098706000E-03     5.956001785820000E-03
             6.029260607786000E-03     6.103420513262000E-03     6.178492585575000E-03     6.254488044377000E-03
             6.331418247323000E-03     6.409294691765000E-03     6.488129016474000E-03     6.567933003376000E-03
             6.648718579318000E-03     6.730497817843000E-03     6.813282941003000E-03     6.897086321177000E-03
             6.981920482928000E-03     7.067798104868000E-03     7.154732021558000E-03     7.242735225423000E-03
             7.331820868696000E-03     7.422002265381000E-03     7.513292893245000E-03     7.605706395832000E-03
             7.699256584500000E-03     7.793957440490000E-03     7.889823117007999E-03     7.986867941347000E-03
             8.085106417026000E-03     8.184553225955000E-03     8.285223230633999E-03     8.387131476371001E-03
             8.490293193530001E-03     8.594723799811001E-03     8.700438902547999E-03     8.807454301050000E-03
             8.915785988953000E-03     9.025450156617000E-03     9.136463193543000E-03     9.248841690823999E-03
             9.362602443621000E-03     9.477762453676999E-03     9.594338931858000E-03     9.712349300719000E-03
             9.831811197118000E-03     9.952742474843001E-03     1.007516120728000E-02     1.019908569013000E-02
             1.032453444412000E-02     1.045152621778000E-02     1.058007999026000E-02     1.071021497414000E-02
             1.084195061833000E-02     1.097530661093000E-02     1.111030288224000E-02     1.124695960770000E-02
             1.138529721087000E-02     1.152533636656000E-02     1.166709800387000E-02     1.181060330932000E-02
             1.195587373003000E-02     1.210293097691000E-02     1.225179702792000E-02     1.240249413137000E-02
             1.255504480918000E-02     1.270947186033000E-02     1.286579836422000E-02     1.302404768410000E-02
             1.318424347061000E-02     1.334640966530000E-02     1.351057050418000E-02     1.367675052138000E-02
             1.384497455280000E-02     1.401526773979000E-02     1.418765553299000E-02     1.436216369605000E-02
             1.453881830951000E-02     1.471764577472000E-02     1.489867281775000E-02     1.508192649341000E-02
             1.526743418928000E-02     1.545522362980000E-02     1.564532288045000E-02     1.583776035188000E-02
             1.603256480421000E-02     1.622976535130000E-02     1.642939146512000E-02     1.663147298014000E-02
             1.683604009780000E-02     1.704312339100000E-02     1.725275380871000E-02     1.746496268056000E-02
             1.767978172153000E-02     1.789724303670000E-02     1.811737912605000E-02     1.834022288930000E-02
             1.856580763084000E-02     1.879416706470000E-02     1.902533531960000E-02     1.925934694403000E-02
             1.949623691144000E-02     1.973604062545000E-02     1.997879392514000E-02     2.022453309042000E-02
             2.047329484744000E-02     2.072511637406000E-02     2.098003530546000E-02     2.123808973972000E-02
             2.149931824352000E-02     2.176375985791000E-02     2.203145410416000E-02     2.230244098964000E-02
             2.257676101382000E-02     2.285445517429000E-02     2.313556497293000E-02     2.342013242210000E-02
             2.370820005089000E-02     2.399981091152000E-02     2.429500858573000E-02     2.459383719133000E-02
             2.489634138878000E-02     2.520256638787000E-02     2.551255795444000E-02     2.582636241728000E-02
             2.614402667501000E-02     2.646559820311000E-02     2.679112506101000E-02     2.712065589926000E-02
             2.745423996682000E-02     2.779192711841000E-02     2.813376782197000E-02     2.847981316618000E-02
             2.883011486812000E-02     2.918472528100000E-02     2.954369740196000E-02     2.990708488000000E-02
             3.027494202403000E-02     3.064732381092000E-02     3.102428589380000E-02     3.140588461029000E-02
             3.179217699100000E-02     3.218322076799000E-02     3.257907438343000E-02     3.297979699835000E-02
             3.338544850143000E-02     3.379608951800000E-02     3.421178141907000E-02     3.463258633052000E-02
             3.505856714239000E-02     3.548978751824000E-02     3.592631190471000E-02     3.636820554114000E-02
             3.681553446930000E-02     3.726836554327000E-02     3.772676643945000E-02     3.819080566666000E-02
             3.866055257636000E-02     3.913607737305000E-02     3.961745112473000E-02     4.010474577357000E-02
             4.059803414658000E-02     4.109738996659000E-02     4.160288786318000E-02     4.211460338389000E-02
             4.263261300551000E-02     4.315699414548000E-02     4.368782517347000E-02     4.422518542311000E-02
             4.476915520381000E-02     4.531981581282000E-02     4.587724954732000E-02     4.644153971675000E-02
             4.701277065526000E-02     4.759102773432000E-02     4.817639737545000E-02     4.876896706317000E-02
             4.936882535805000E-02     4.997606190995000E-02     5.059076747145000E-02     5.121303391134000E-02
             5.184295422845000E-02     5.248062256546000E-02     5.312613422302000E-02     5.377958567396000E-02
             5.444107457775000E-02     5.511069979506000E-02     5.578856140254000E-02     5.647476070779000E-02
             5.716940026449000E-02     5.787258388775000E-02     5.858441666957000E-02     5.930500499460000E-02
             6.003445655604000E-02     6.077288037168000E-02     6.152038680025000E-02     6.227708755789000E-02
             6.304309573484999E-02     6.381852581239000E-02     6.460349367988000E-02     6.539811665215001E-02
             6.620251348697000E-02     6.701680440285999E-02     6.784111109701001E-02     6.867555676351000E-02
             6.952026611169999E-02     7.037536538487001E-02     7.124098237911000E-02     7.211724646237000E-02
             7.300428859385000E-02     7.390224134355999E-02     7.481123891209000E-02     7.573141715070000E-02
             7.666291358166000E-02     7.760586741871001E-02     7.856041958796001E-02     7.952671274889000E-02
             8.050489131570000E-02     8.149510147889000E-02     8.249749122708000E-02     8.351221036917000E-02
             8.453941055671001E-02     8.557924530656000E-02     8.663187002382999E-02     8.769744202512000E-02
             8.877612056203001E-02     8.986806684495000E-02     9.097344406714000E-02     9.209241742917000E-02
             9.322515416354001E-02     9.437182355975000E-02     9.553259698954000E-02     9.670764793250999E-02
             9.789715200208000E-02     9.910128697171000E-02     1.003202328015000E-01     1.015541716649000E-01
             1.028032879764000E-01     1.040677684185000E-01     1.053478019701000E-01     1.066435799343000E-01
             1.079552959675000E-01     1.092831461079000E-01     1.106273288050000E-01     1.119880449493000E-01
             1.133654979022000E-01     1.147598935264000E-01     1.161714402167000E-01     1.176003489314000E-01
             1.190468332233000E-01     1.205111092719000E-01     1.219933959160000E-01     1.234939146857000E-01
             1.250128898364000E-01     1.265505483813000E-01     1.281071201264000E-01     1.296828377040000E-01
             1.312779366078000E-01     1.328926552280000E-01     1.345272348873000E-01     1.361819198765000E-01
             1.378569574909000E-01     1.395525980681000E-01     1.412690950243000E-01     1.430067048931000E-01
             1.447656873633000E-01     1.465463053179000E-01     1.483488248733000E-01     1.501735154192000E-01
             1.520206496589000E-01     1.538905036497000E-01     1.557833568446000E-01     1.576994921338000E-01
             1.596391958870000E-01     1.616027579964000E-01     1.635904719198000E-01     1.656026347244000E-01
             1.676395471315000E-01     1.697015135612000E-01     1.717888421780000E-01     1.739018449368000E-01
             1.760408376295000E-01     1.782061399324000E-01     1.803980754535000E-01     1.826169717816000E-01
             1.848631605345000E-01     1.871369774091000E-01     1.894387622312000E-01     1.917688590067000E-01
             1.941276159725000E-01     1.965153856489000E-01     1.989325248924000E-01     2.013793949486000E-01
             2.038563615064000E-01     2.063637947530000E-01     2.089020694284000E-01     2.114715648824000E-01
             2.140726651305000E-01     2.167057589116000E-01     2.193712397462000E-01     2.220695059950000E-01
             2.248009609188000E-01     2.275660127381000E-01     2.303650746948000E-01     2.331985651135000E-01
             2.360669074644000E-01     2.389705304262000E-01     2.419098679505000E-01     2.448853593263000E-01
             2.478974492460000E-01     2.509465878717000E-01     2.540332309025000E-01     2.571578396426000E-01
             2.603208810702000E-01     2.635228279074000E-01     2.667641586907000E-01     2.700453578425000E-01
             2.733669157440000E-01     2.767293288077000E-01     2.801330995520000E-01     2.835787366765000E-01
             2.870667551376000E-01     2.905976762258000E-01     2.941720276434000E-01     2.977903435834000E-01
             3.014531648095000E-01     3.051610387366000E-01     3.089145195131000E-01     3.127141681031000E-01
             3.165605523707000E-01     3.204542471649000E-01     3.243958344050000E-01     3.283859031682000E-01
             3.324250497772000E-01     3.365138778894000E-01     3.406529985875000E-01     3.448430304701000E-01
             3.490845997449000E-01     3.533783403218000E-01     3.577248939077000E-01     3.621249101028000E-01
             3.665790464970000E-01     3.710879687690000E-01     3.756523507848000E-01     3.802728746995000E-01
             3.849502310583000E-01     3.896851189003000E-01     3.944782458628000E-01     3.993303282869000E-01
             4.042420913248000E-01     4.092142690481000E-01     4.142476045574000E-01     4.193428500935000E-01
             4.245007671496000E-01     4.297221265855000E-01     4.350077087426000E-01     4.403583035601000E-01
             4.457747106939000E-01     4.512577396354000E-01     4.568082098329000E-01     4.624269508139000E-01
             4.681148023089000E-01     4.738726143773000E-01     4.797012475341000E-01     4.856015728788000E-01
             4.915744722252000E-01     4.976208382336000E-01     5.037415745438000E-01     5.099375959107000E-01
             5.162098283404000E-01     5.225592092290000E-01     5.289866875025000E-01     5.354932237588000E-01
             5.420797904110000E-01     5.487473718331000E-01     5.554969645066000E-01     5.623295771701000E-01
             5.692462309693000E-01     5.762479596102000E-01     5.833358095134000E-01     5.905108399704000E-01
             5.977741233021000E-01     6.051267450187000E-01     6.125698039824000E-01     6.201044125714000E-01
             6.277316968460001E-01     6.354527967172000E-01     6.432688661168000E-01     6.511810731701000E-01
             6.591906003701000E-01     6.672986447546000E-01     6.755064180851000E-01     6.838151470275000E-01
             6.922260733359999E-01     7.007404540380000E-01     7.093595616227000E-01     7.180846842306000E-01
             7.269171258467000E-01     7.358582064946000E-01     7.449092624345000E-01     7.540716463624000E-01
             7.633467276126999E-01     7.727358923623000E-01     7.822405438384000E-01     7.918621025276000E-01
             8.016020063887001E-01     8.114617110672000E-01     8.214426901134000E-01     8.315464352018000E-01
             8.417744563548000E-01     8.521282821679000E-01     8.626094600386000E-01     8.732195563971000E-01
             8.839601569407000E-01     8.948328668711000E-01     9.058393111335999E-01     9.169811346606001E-01
             9.282600026169000E-01     9.396776006491000E-01     9.512356351371000E-01     9.629358334493000E-01
             9.747799442007000E-01     9.867697375144000E-01     9.989070052858000E-01     1.011193561451000E+00
             1.023631242257000E+00     1.036221906536000E+00     1.048967435987000E+00     1.061869735449000E+00
             1.074930733196000E+00     1.088152381214000E+00     1.101536655503000E+00     1.115085556365000E+00
             1.128801108709000E+00     1.142685362346000E+00     1.156740392303000E+00     1.170968299128000E+00
             1.185371209207000E+00     1.199951275080000E+00     1.214710675764000E+00     1.229651617076000E+00
             1.244776331966000E+00     1.260087080849000E+00     1.275586151943000E+00     1.291275861612000E+00
             1.307158554710000E+00     1.323236604933000E+00     1.339512415174000E+00     1.355988417880000E+00
             1.372667075420000E+00     1.389550880448000E+00     1.406642356278000E+00     1.423944057260000E+00
             1.441458569164000E+00     1.459188509565000E+00     1.477136528232000E+00     1.495305307530000E+00
             1.513697562812000E+00     1.532316042835000E+00     1.551163530162000E+00     1.570242841583000E+00
             1.589556828534000E+00     1.609108377525000E+00     1.628900410569000E+00     1.648935885619000E+00
             1.669217797012000E+00     1.689749175915000E+00     1.710533090779000E+00     1.731572647796000E+00
             1.752870991363000E+00     1.774431304557000E+00     1.796256809603000E+00     1.818350768361000E+00
             1.840716482812000E+00     1.863357295551000E+00     1.886276590286000E+00     1.909477792347000E+00
             1.932964369192000E+00     1.956739830934000E+00     1.980807730854000E+00     2.005171665944000E+00
             2.029835277435000E+00     2.054802251347000E+00     2.080076319039000E+00     2.105661257763000E+00
             2.131560891233000E+00     2.157779090195000E+00     2.184319773005000E+00     2.211186906213000E+00
             2.238384505159000E+00     2.265916634573000E+00     2.293787409178000E+00     2.322000994311000E+00
             2.350561606541000E+00     2.379473514301000E+00     2.408741038527000E+00     2.438368553301000E+00
             2.468360486507000E+00     2.498721320491000E+00     2.529455592733000E+00     2.560567896523000E+00
             2.592062881651000E+00     2.623945255095000E+00     2.656219781733000E+00     2.688891285048000E+00
             2.721964647854000E+00     2.755444813023000E+00     2.789336784223000E+00     2.823645626669000E+00
             2.858376467877000E+00     2.893534498432000E+00     2.929124972762000E+00     2.965153209927000E+00
             3.001624594409000E+00     3.038544576921000E+00     3.075918675217000E+00     3.113752474922000E+00
             3.152051630363000E+00     3.190821865417000E+00     3.230068974362000E+00     3.269798822746000E+00
             3.310017348266000E+00     3.350730561650000E+00     3.391944547558000E+00     3.433665465493000E+00
             3.475899550719000E+00     3.518653115192000E+00     3.561932548509000E+00     3.605744318856000E+00
             3.650094973978000E+00     3.694991142158000E+00     3.740439533206000E+00     3.786446939465000E+00
             3.833020236820000E+00     3.880166385733000E+00     3.927892432277000E+00     3.976205509195000E+00
             4.025112836958000E+00     4.074621724852000E+00     4.124739572068000E+00     4.175473868804000E+00
             4.226832197391000E+00     4.278822233419000E+00     4.331451746889000E+00     4.384728603376000E+00
             4.438660765198000E+00     4.493256292610000E+00     4.548523345009000E+00     4.604470182152000E+00
             4.661105165393000E+00     4.718436758927000E+00     4.776473531062000E+00     4.835224155494000E+00
             4.894697412607000E+00     4.954902190782000E+00     5.015847487728000E+00     5.077542411827000E+00
             5.139996183493000E+00     5.203218136550000E+00     5.267217719629000E+00     5.332004497581000E+00
             5.397588152901000E+00     5.463978487182000E+00     5.531185422574000E+00     5.599219003272000E+00
             5.668089397012000E+00     5.737806896595000E+00     5.808381921423000E+00     5.879825019057000E+00
             5.952146866791000E+00     6.025358273253000E+00     6.099470180014000E+00     6.174493663228000E+00
             6.250439935286000E+00     6.327320346490000E+00     6.405146386752000E+00     6.483929687309000E+00
             6.563682022463000E+00     6.644415311339000E+00     6.726141619668000E+00     6.808873161590000E+00
             6.892622301478000E+00     6.977401555786000E+00     7.063223594922000E+00     7.150101245140000E+00
             7.238047490455000E+00     7.327075474587000E+00     7.417198502925000E+00     7.508430044511000E+00
             7.600783734058000E+00     7.694273373987000E+00     7.788912936487000E+00     7.884716565606000E+00
             7.981698579363000E+00     8.079873471889000E+00     8.179255915593000E+00     8.279860763355000E+00
             8.381703050744999E+00     8.484797998269000E+00     8.589161013647001E+00     8.694807694114999E+00
             8.801753828753000E+00     8.910015400847000E+00     9.019608590277000E+00     9.130549775937000E+00
             9.242855538181001E+00     9.356542661301001E+00     9.471628136034999E+00     9.588129162108000E+00
             9.706063150802001E+00     9.825447727557000E+00     9.946300734606000E+00     1.006864023364000E+01
             1.019248450851000E+01     1.031785206797000E+01     1.044476164841000E+01     1.057323221668000E+01
             1.070328297295000E+01     1.083493335351000E+01     1.096820303376000E+01     1.110311193108000E+01
             1.123968020783000E+01     1.137792827439000E+01     1.151787679216000E+01     1.165954667671000E+01
             1.180295910083000E+01     1.194813549777000E+01     1.209509756439000E+01     1.224386726443000E+01
             1.239446683178000E+01     1.254691877382000E+01     1.270124587473000E+01     1.285747119899000E+01
             1.301561809474000E+01     1.317571019731000E+01     1.333777143273000E+01     1.350182602136000E+01
             1.366789848142000E+01     1.383601363274000E+01     1.400619660042000E+01     1.417847281861000E+01
             1.435286803428000E+01     1.452940831110000E+01     1.470812003333000E+01     1.488902990973000E+01
             1.507216497762000E+01     1.525755260685000E+01     1.544522050391000E+01     1.563519671611000E+01
             1.582750963572000E+01     1.602218800424000E+01     1.621926091669000E+01     1.641875782597000E+01
             1.662070854723000E+01     1.682514326236000E+01     1.703209252448000E+01     1.724158726253000E+01
             1.745365878586000E+01     1.766833878893000E+01     1.788565935603000E+01     1.810565296611000E+01
             1.832835249760000E+01     1.855379123332000E+01     1.878200286549000E+01     1.901302150073000E+01
             1.924688166519000E+01     1.948361830967000E+01     1.972326681488000E+01     1.996586299670000E+01
             2.021144311156000E+01     2.046004386184000E+01     2.071170240134000E+01     2.096645634087000E+01
             2.122434375387000E+01     2.148540318204000E+01     2.174967364118000E+01     2.201719462697000E+01
             2.228800612088000E+01     2.256214859616000E+01     2.283966302390000E+01     2.312059087909000E+01
             2.340497414690000E+01     2.369285532891000E+01     2.398427744945000E+01     2.427928406208000E+01
             2.457791925605000E+01     2.488022766290000E+01     2.518625446315000E+01     2.549604539305000E+01
             2.580964675138000E+01     2.612710540642000E+01     2.644846880292000E+01     2.677378496920000E+01
             2.710310252432000E+01     2.743647068537000E+01     2.777393927480000E+01     2.811555872788000E+01