<UPF version="2.0.1">
  <PP_INFO>
    local psp - psp6 format
    13.000     3.000   20210830  zatom,zion,pspd
    6  11  0  0     983 0  pspcode,pspxc,lmax,lloc,mmax,r2well
    0   0   0    rchrg,fchrg,qchrg
    5---- no use
    6---- no use
    7---- no use
    3.0000E+00  1    zion   lmax+1
    0.0000    0.0000    0.0000   0.0000
    0.0000    0.0000    0.0000
    0.0000    0.0000    0.0000
    0.0000    0.0000    0.0000
    0.0000    0.0000    0.0000
    0.0000    0.0000    0.0000
    0.0000    0.0000    0.0000
    0.0000    0.0000    0.0000
    0.0000    0.0000    0.0000
    0.0000    0.0000    0.0000
    md5 b4bef17994aa70ca2cf29b52bb13c44f al_lps.cpi
  </PP_INFO>
  <!--                               -->
  <!-- END OF HUMAN READABLE SECTION -->
  <!--                               -->
  <PP_HEADER
            generated="DFTpy"
            author="shaoxc"
            date="Wed Apr 17 11:10:27 2024"
            comment=""
            element="Al"
            pseudo_type="NC"
            relativistic="nonrelativistic"
            is_ultrasoft="F"
            is_paw="F"
            is_coulomb="F"
            has_so="F"
            has_wfc="F"
            has_gipaw="F"
            paw_as_gipaw="F"
            core_correction="F"
            functional="pbe"
            z_valence="3.0"
            total_psenergy="0.0"
            wfc_cutoff="0.0"
            rho_cutoff="0.0"
            l_max="1"
            l_max_rho="0"
            l_local="-1"
            mesh_size="983"
            number_of_wfc="0"
            number_of_proj="1"/>
  <PP_MESH>
    <PP_R type="real" size="983" columns="4">
             4.807692307692000E-04     4.866826923077000E-04     4.926688894231000E-04     4.987287167630000E-04
             5.048630799791999E-04     5.110728958629000E-04     5.173590924820000E-04     5.237226093196000E-04
             5.301643974142000E-04     5.366854195024000E-04     5.432866501623000E-04     5.499690759593000E-04
             5.567336955936000E-04     5.635815200494000E-04     5.705135727460000E-04     5.775308896907001E-04
             5.846345196339000E-04     5.918255242254000E-04     5.991049781734000E-04     6.064739694048999E-04
             6.139335992286000E-04     6.214849824991000E-04     6.291292477839000E-04     6.368675375316000E-04
             6.447010082432000E-04     6.526308306446000E-04     6.606581898616000E-04     6.687842855969000E-04
             6.770103323097000E-04     6.853375593971000E-04     6.937672113777000E-04     7.023005480776000E-04
             7.109388448190000E-04     7.196833926103000E-04     7.285354983394000E-04     7.374964849690000E-04
             7.465676917341000E-04     7.557504743424000E-04     7.650462051768000E-04     7.744562735005000E-04
             7.839820856645000E-04     7.936250653182000E-04     8.033866536216000E-04     8.132683094612000E-04
             8.232715096676000E-04     8.333977492365000E-04     8.436485415521000E-04     8.540254186132000E-04
             8.645299312621000E-04     8.751636494166000E-04     8.859281623044000E-04     8.968250787008000E-04
             9.078560271688000E-04     9.190226563030000E-04     9.303266349755000E-04     9.417696525857000E-04
             9.533534193125000E-04     9.650796663701000E-04     9.769501462663999E-04     9.889666330655000E-04
             1.001130922652000E-03     1.013444833001000E-03     1.025910204447000E-03     1.038528899961000E-03
             1.051302805431000E-03     1.064233829938000E-03     1.077323906046000E-03     1.090574990090000E-03
             1.103989062469000E-03     1.117568127937000E-03     1.131314215910000E-03     1.145229380766000E-03
             1.159315702150000E-03     1.173575285286000E-03     1.188010261295000E-03     1.202622787509000E-03
             1.217415047795000E-03     1.232389252883000E-03     1.247547640694000E-03     1.262892476674000E-03
             1.278426054137000E-03     1.294150694603000E-03     1.310068748147000E-03     1.326182593749000E-03
             1.342494639652000E-03     1.359007323720000E-03     1.375723113802000E-03     1.392644508101000E-03
             1.409774035551000E-03     1.427114256188000E-03     1.444667761539000E-03     1.462437175006000E-03
             1.480425152259000E-03     1.498634381632000E-03     1.517067584526000E-03     1.535727515815000E-03
             1.554616964260000E-03     1.573738752920000E-03     1.593095739581000E-03     1.612690817178000E-03
             1.632526914229000E-03     1.652606995274000E-03     1.672934061316000E-03     1.693511150271000E-03
             1.714341337419000E-03     1.735427735869000E-03     1.756773497020000E-03     1.778381811034000E-03
             1.800255907309000E-03     1.822399054969000E-03     1.844814563345000E-03     1.867505782474000E-03
             1.890476103599000E-03     1.913728959673000E-03     1.937267825877000E-03     1.961096220135000E-03
             1.985217703643000E-03     2.009635881398000E-03     2.034354402739000E-03     2.059376961893000E-03
             2.084707298524000E-03     2.110349198296000E-03     2.136306493435000E-03     2.162583063304000E-03
             2.189182834983000E-03     2.216109783853000E-03     2.243367934195000E-03     2.270961359785000E-03
             2.298894184510000E-03     2.327170582980000E-03     2.355794781151000E-03     2.384771056959000E-03
             2.414103740959000E-03     2.443797216973000E-03     2.473855922742000E-03     2.504284350592000E-03
             2.535087048104000E-03     2.566268618796000E-03     2.597833722807000E-03     2.629787077597000E-03
             2.662133458652000E-03     2.694877700193000E-03     2.728024695906000E-03     2.761579399665000E-03
             2.795546826281000E-03     2.829932052244000E-03     2.864740216487000E-03     2.899976521150000E-03
             2.935646232360000E-03     2.971754681018000E-03     3.008307263594000E-03     3.045309442937000E-03
             3.082766749085000E-03     3.120684780099000E-03     3.159069202894000E-03     3.197925754089000E-03
             3.237260240865000E-03     3.277078541827000E-03     3.317386607892000E-03     3.358190463169000E-03
             3.399496205866000E-03     3.441310009198000E-03     3.483638122311000E-03     3.526486871216000E-03
             3.569862659731000E-03     3.613771970446000E-03     3.658221365683000E-03     3.703217488481000E-03
             3.748767063589000E-03     3.794876898471000E-03     3.841553884322000E-03     3.888804997099000E-03
             3.936637298564000E-03     3.985057937336000E-03     4.034074149965000E-03     4.083693262010000E-03
             4.133922689133000E-03     4.184769938209000E-03     4.236242608449000E-03     4.288348392533000E-03
             4.341095077761000E-03     4.394490547217000E-03     4.448542780948000E-03     4.503259857154000E-03
             4.558649953397000E-03     4.614721347824000E-03     4.671482420402000E-03     4.728941654173000E-03
             4.787107636519000E-03     4.845989060448000E-03     4.905594725892000E-03     4.965933541020000E-03
             5.027014523575000E-03     5.088846802215000E-03     5.151439617882000E-03     5.214802325182000E-03
             5.278944393782000E-03     5.343875409825000E-03     5.409605077366000E-03     5.476143219818000E-03
             5.543499781421000E-03     5.611684828733000E-03     5.680708552126000E-03     5.750581267318000E-03
             5.821313416906000E-03     5.892915571933000E-03     5.965398433468000E-03     6.038772834200000E-03
             6.113049740060000E-03     6.188240251863000E-03     6.264355606961000E-03     6.341407180927000E-03
             6.419406489252000E-03     6.498365189070000E-03     6.578295080896000E-03     6.659208110391000E-03
             6.741116370148000E-03     6.824032101501000E-03     6.907967696350000E-03     6.992935699015000E-03
             7.078948808113000E-03     7.166019878452000E-03     7.254161922957000E-03     7.343388114610000E-03
             7.433711788419000E-03     7.525146443417000E-03     7.617705744671000E-03     7.711403525330000E-03
             7.806253788692000E-03     7.902270710292999E-03     7.999468640030000E-03     8.097862104302000E-03
             8.197465808185001E-03     8.298294637626000E-03     8.400363661667999E-03     8.503688134707000E-03
             8.608283498764000E-03     8.714165385799000E-03     8.821349620044000E-03     8.929852220370000E-03
             9.039689402681000E-03     9.150877582334000E-03     9.263433376597000E-03     9.377373607128999E-03
             9.492715302497000E-03     9.609475700716999E-03     9.727672251836000E-03     9.847322620534000E-03
             9.968444688766001E-03     1.009105655844000E-02     1.021517655411000E-02     1.034082322572000E-02
             1.046801535140000E-02     1.059677194022000E-02     1.072711223509000E-02     1.085905571558000E-02
             1.099262210088000E-02     1.112783135272000E-02     1.126470367836000E-02     1.140325953360000E-02
             1.154351962587000E-02     1.168550491726000E-02     1.182923662775000E-02     1.197473623827000E-02
             1.212202549400000E-02     1.227112640757000E-02     1.242206126239000E-02     1.257485261591000E-02
             1.272952330309000E-02     1.288609643972000E-02     1.304459542593000E-02     1.320504394967000E-02
             1.336746599025000E-02     1.353188582193000E-02     1.369832801754000E-02     1.386681745215000E-02
             1.403737930681000E-02     1.421003907229000E-02     1.438482255288000E-02     1.456175587028000E-02
             1.474086546748000E-02     1.492217811273000E-02     1.510572090352000E-02     1.529152127063000E-02
             1.547960698226000E-02     1.567000614814000E-02     1.586274722376000E-02     1.605785901462000E-02
             1.625537068049000E-02     1.645531173987000E-02     1.665771207427000E-02     1.686260193278000E-02
             1.707001193655000E-02     1.727997308337000E-02     1.749251675230000E-02     1.770767470835000E-02
             1.792547910726000E-02     1.814596250028000E-02     1.836915783904000E-02     1.859509848046000E-02
             1.882381819177000E-02     1.905535115553000E-02     1.928973197474000E-02     1.952699567803000E-02
             1.976717772487000E-02     2.001031401088000E-02     2.025644087322000E-02     2.050559509596000E-02
             2.075781391564000E-02     2.101313502680000E-02     2.127159658763000E-02     2.153323722566000E-02
             2.179809604353000E-02     2.206621262487000E-02     2.233762704015000E-02     2.261237985275000E-02
             2.289051212494000E-02     2.317206542407000E-02     2.345708182879000E-02     2.374560393528000E-02
             2.403767486369000E-02     2.433333826451000E-02     2.463263832517000E-02     2.493561977656000E-02
             2.524232789982000E-02     2.555280853298000E-02     2.586710807794000E-02     2.618527350730000E-02
             2.650735237144000E-02     2.683339280561000E-02     2.716344353712000E-02     2.749755389262000E-02
             2.783577380550000E-02     2.817815382331000E-02     2.852474511534000E-02     2.887559948025000E-02
             2.923076935386000E-02     2.959030781691000E-02     2.995426860306000E-02     3.032270610688000E-02
             3.069567539199000E-02     3.107323219932000E-02     3.145543295537000E-02     3.184233478072000E-02
             3.223399549852000E-02     3.263047364315000E-02     3.303182846896000E-02     3.343811995913000E-02
             3.384940883463000E-02     3.426575656330000E-02     3.468722536902000E-02     3.511387824106000E-02
             3.554577894343000E-02     3.598299202443000E-02     3.642558282633000E-02     3.687361749510000E-02
             3.732716299029000E-02     3.778628709507000E-02     3.825105842634000E-02     3.872154644498000E-02
             3.919782146625000E-02     3.967995467029000E-02     4.016801811273000E-02     4.066208473552000E-02
             4.116222837777000E-02     4.166852378681000E-02     4.218104662939000E-02     4.269987350293000E-02
             4.322508194702000E-02     4.375675045497000E-02     4.429495848556000E-02     4.483978647494000E-02
             4.539131584858000E-02     4.594962903351000E-02     4.651480947063000E-02     4.708694162711000E-02
             4.766611100913000E-02     4.825240417454000E-02     4.884590874589000E-02     4.944671342346000E-02
             5.005490799857000E-02     5.067058336695000E-02     5.129383154237000E-02     5.192474567034000E-02
             5.256342004208000E-02     5.320995010860000E-02     5.386443249494000E-02     5.452696501462000E-02
             5.519764668430000E-02     5.587657773852000E-02     5.656385964470000E-02     5.725959511833000E-02
             5.796388813829000E-02     5.867684396239000E-02     5.939856914313000E-02     6.012917154359000E-02
             6.086876035357000E-02     6.161744610592000E-02     6.237534069303000E-02     6.314255738355000E-02
             6.391921083936999E-02     6.470541713269000E-02     6.550129376343000E-02     6.630695967672000E-02
             6.712253528074000E-02     6.794814246469000E-02     6.878390461701001E-02     6.962994664380000E-02
             7.048639498751000E-02     7.135337764586000E-02     7.223102419091000E-02     7.311946578844999E-02
             7.401883521765000E-02     7.492926689083000E-02     7.585089687359001E-02     7.678386290512999E-02
             7.772830441886000E-02     7.868436256322001E-02     7.965218022274000E-02     8.063190203947999E-02
             8.162367443457000E-02     8.262764563011001E-02     8.364396567137000E-02     8.467278644912000E-02
             8.571426172245000E-02     8.676854714163000E-02     8.783580027148000E-02     8.891618061481001E-02
             9.000984963637999E-02     9.111697078690000E-02     9.223770952757999E-02     9.337223335477000E-02
             9.452071182504000E-02     9.568331658048000E-02     9.686022137442001E-02     9.805160209733001E-02
             9.925763680313000E-02     1.004785057358000E-01     1.017143913564000E-01     1.029654783700000E-01
             1.042319537540000E-01     1.055140067852000E-01     1.068118290686000E-01     1.081256145662000E-01
             1.094555596253000E-01     1.108018630087000E-01     1.121647259237000E-01     1.135443520526000E-01
             1.149409475828000E-01     1.163547212381000E-01     1.177858843093000E-01     1.192346506863000E-01
             1.207012368898000E-01     1.221858621035000E-01     1.236887482074000E-01     1.252101198103000E-01
             1.267502042840000E-01     1.283092317967000E-01     1.298874353478000E-01     1.314850508026000E-01
             1.331023169275000E-01     1.347394754257000E-01     1.363967709734000E-01     1.380744512564000E-01
             1.397727670068000E-01     1.414919720410000E-01     1.432323232971000E-01     1.449940808737000E-01
             1.467775080684000E-01     1.485828714177000E-01     1.504104407361000E-01     1.522604891571000E-01
             1.541332931738000E-01     1.560291326798000E-01     1.579482910118000E-01     1.598910549912000E-01
             1.618577149676000E-01     1.638485648617000E-01     1.658639022095000E-01     1.679040282067000E-01
             1.699692477536000E-01     1.720598695010000E-01     1.741762058959000E-01     1.763185732284000E-01
             1.784872916791000E-01     1.806826853668000E-01     1.829050823968000E-01     1.851548149102000E-01
             1.874322191336000E-01     1.897376354290000E-01     1.920714083448000E-01     1.944338866674000E-01
             1.968254234734000E-01     1.992463761821000E-01     2.016971066092000E-01     2.041779810205000E-01
             2.066893701870000E-01     2.092316494403000E-01     2.118051987284000E-01     2.144104026728000E-01
             2.170476506257000E-01     2.197173367284000E-01     2.224198599701000E-01     2.251556242478000E-01
             2.279250384260000E-01     2.307285163986000E-01     2.335664771504000E-01     2.364393448193000E-01
             2.393475487606000E-01     2.422915236103000E-01     2.452717093507000E-01     2.482885513758000E-01
             2.513425005577000E-01     2.544340133145000E-01     2.575635516783000E-01     2.607315833639000E-01
             2.639385818393000E-01     2.671850263959000E-01     2.704714022206000E-01     2.737982004679000E-01
             2.771659183337000E-01     2.805750591292000E-01     2.840261323565000E-01     2.875196537845000E-01
             2.910561455260000E-01     2.946361361160000E-01     2.982601605902000E-01     3.019287605655000E-01
             3.056424843204000E-01     3.094018868776000E-01     3.132075300862000E-01     3.170599827062000E-01
             3.209598204935000E-01     3.249076262856000E-01     3.289039900889000E-01     3.329495091670000E-01
             3.370447881297000E-01     3.411904390237000E-01     3.453870814237000E-01     3.496353425252000E-01
             3.539358572383000E-01     3.582892682823000E-01     3.626962262822000E-01     3.671573898655000E-01
             3.716734257608000E-01     3.762450088977000E-01     3.808728225071000E-01     3.855575582239000E-01
             3.902999161901000E-01     3.951006051592000E-01     3.999603426027000E-01     4.048798548167000E-01
             4.098598770310000E-01     4.149011535184000E-01     4.200044377067000E-01     4.251704922905000E-01
             4.304000893457000E-01     4.356940104446000E-01     4.410530467731000E-01     4.464779992484000E-01
             4.519696786392000E-01     4.575289056864000E-01     4.631565112264000E-01     4.688533363145000E-01
             4.746202323511000E-01     4.804580612090000E-01     4.863676953619000E-01     4.923500180149000E-01
             4.984059232364000E-01     5.045363160923000E-01     5.107421127802000E-01     5.170242407673999E-01
             5.233836389288000E-01     5.298212576876000E-01     5.363380591572000E-01     5.429350172849000E-01
             5.496131179975000E-01     5.563733593487999E-01     5.632167516688000E-01     5.701443177143000E-01
             5.771570928222000E-01     5.842561250639000E-01     5.914424754022000E-01     5.987172178497000E-01
             6.060814396292000E-01     6.135362413367000E-01     6.210827371051000E-01     6.287220547715000E-01
             6.364553360452000E-01     6.442837366785000E-01     6.522084266397000E-01     6.602305902873000E-01
             6.683514265479000E-01     6.765721490944000E-01     6.848939865283000E-01     6.933181825626000E-01
             7.018459962081000E-01     7.104787019615000E-01     7.192175899956000E-01     7.280639663525000E-01
             7.370191531387000E-01     7.460844887223000E-01     7.552613279336000E-01     7.645510422671000E-01
             7.739550200870000E-01     7.834746668341001E-01     7.931114052362001E-01     8.028666755206000E-01
             8.127419356295000E-01     8.227386614377000E-01     8.328583469734000E-01     8.431025046412000E-01
             8.534726654482000E-01     8.639703792333000E-01     8.745972148978000E-01     8.853547606411000E-01
             8.962446241970000E-01     9.072684330746000E-01     9.184278348014000E-01     9.297244971695000E-01
             9.411601084846000E-01     9.527363778190000E-01     9.644550352662000E-01     9.763178322000000E-01
             9.883265415360000E-01     1.000482957997000E+00     1.012788898380000E+00     1.025246201830000E+00
             1.037856730113000E+00     1.050622367893000E+00     1.063545023018000E+00     1.076626626801000E+00
             1.089869134311000E+00     1.103274524663000E+00     1.116844801316000E+00     1.130581992373000E+00
             1.144488150879000E+00     1.158565355135000E+00     1.172815709003000E+00     1.187241342224000E+00
             1.201844410733000E+00     1.216627096985000E+00     1.231591610278000E+00     1.246740187084000E+00
             1.262075091385000E+00     1.277598615010000E+00     1.293313077974000E+00     1.309220828833000E+00
             1.325324245028000E+00     1.341625733242000E+00     1.358127729760000E+00     1.374832700837000E+00
             1.391743143057000E+00     1.408861583716000E+00     1.426190581196000E+00     1.443732725345000E+00
             1.461490637867000E+00     1.479466972712000E+00     1.497664416477000E+00     1.516085688799000E+00
             1.534733542772000E+00     1.553610765348000E+00     1.572720177762000E+00     1.592064635948000E+00
             1.611647030970000E+00     1.631470289451000E+00     1.651537374011000E+00     1.671851283712000E+00
             1.692415054501000E+00     1.713231759672000E+00     1.734304510316000E+00     1.755636455792000E+00
             1.777230784199000E+00     1.799090722844000E+00     1.821219538735000E+00     1.843620539062000E+00
             1.866297071692000E+00     1.889252525674000E+00     1.912490331740000E+00     1.936013962820000E+00
             1.959826934563000E+00     1.983932805858000E+00     2.008335179370000E+00     2.033037702076000E+00
             2.058044065812000E+00     2.083358007821000E+00     2.108983311318000E+00     2.134923806047000E+00
             2.161183368861000E+00     2.187765924298000E+00     2.214675445167000E+00     2.241915953143000E+00
             2.269491519366000E+00     2.297406265055000E+00     2.325664362115000E+00     2.354270033769000E+00
             2.383227555184000E+00     2.412541254113000E+00     2.442215511538000E+00     2.472254762330000E+00
             2.502663495907000E+00     2.533446256907000E+00     2.564607645867000E+00     2.596152319911000E+00
             2.628084993446000E+00     2.660410438865000E+00     2.693133487263000E+00     2.726259029156000E+00
             2.759792015215000E+00     2.793737457002000E+00     2.828100427723000E+00     2.862886062984000E+00
             2.898099561559000E+00     2.933746186166000E+00     2.969831264256000E+00     3.006360188806000E+00
             3.043338419129000E+00     3.080771481684000E+00     3.118664970909000E+00     3.157024550051000E+00
             3.195855952017000E+00     3.235164980226000E+00     3.274957509483000E+00     3.315239486850000E+00
             3.356016932538000E+00     3.397295940808000E+00     3.439082680880000E+00     3.481383397855000E+00
             3.524204413649000E+00     3.567552127937000E+00     3.611433019110000E+00     3.655853645245000E+00
             3.700820645082000E+00     3.746340739016000E+00     3.792420730106000E+00     3.839067505086000E+00
             3.886288035399000E+00     3.934089378234000E+00     3.982478677587000E+00     4.031463165321000E+00
             4.081050162254000E+00     4.131247079250000E+00     4.182061418325000E+00     4.233500773770000E+00
             4.285572833288000E+00     4.338285379137000E+00     4.391646289300000E+00     4.445663538659000E+00
             4.500345200184000E+00     4.555699446147000E+00     4.611734549334000E+00     4.668458884291000E+00
             4.725880928568000E+00     4.784009263989000E+00     4.842852577936000E+00     4.902419664645000E+00
             4.962719426520000E+00     5.023760875466000E+00     5.085553134234000E+00     5.148105437786000E+00
             5.211427134670000E+00     5.275527688427000E+00     5.340416678994000E+00     5.406103804146000E+00
             5.472598880937000E+00     5.539911847173000E+00     5.608052762893000E+00     5.677031811876000E+00
             5.746859303163000E+00     5.817545672591000E+00     5.889101484364000E+00     5.961537432622000E+00
             6.034864343043000E+00     6.109093174463000E+00     6.184235020508000E+00     6.260301111261000E+00
             6.337302814929000E+00     6.415251639553000E+00     6.494159234719000E+00     6.574037393306000E+00
             6.654898053244000E+00     6.736753299299000E+00     6.819615364880000E+00     6.903496633868000E+00
             6.988409642465000E+00     7.074367081067000E+00     7.161381796164000E+00     7.249466792257000E+00
             7.338635233802000E+00     7.428900447178000E+00     7.520275922678000E+00     7.612775316527000E+00
             7.706412452920000E+00     7.801201326091000E+00     7.897156102402000E+00     7.994291122462000E+00
             8.092620903267999E+00     8.192160140378000E+00     8.292923710105001E+00     8.394926671739000E+00
             8.498184269802000E+00     8.602711936320000E+00     8.708525293137001E+00     8.815640154242001E+00
             8.924072528140000E+00     9.033838620236001E+00     9.144954835264000E+00     9.257437779738000E+00
             9.371304264429000E+00     9.486571306882000E+00     9.603256133956000E+00     9.721376184404001E+00
             9.840949111472000E+00     9.961992785543000E+00     1.008452529680000E+01     1.020856495796000E+01
             1.033413030694000E+01     1.046124010971000E+01     1.058991336306000E+01     1.072016929743000E+01
             1.085202737979000E+01     1.098550731656000E+01     1.112062905655000E+01     1.125741279395000E+01
             1.139587897131000E+01     1.153604828266000E+01     1.167794167654000E+01     1.182158035916000E+01
             1.196698579758000E+01     1.211417972289000E+01     1.226318413348000E+01     1.241402129832000E+01
             1.256671376029000E+01     1.272128433954000E+01     1.287775613692000E+01     1.303615253740000E+01
             1.319649721361000E+01     1.335881412934000E+01     1.352312754313000E+01     1.368946201191000E+01
             1.385784239466000E+01     1.402829385611000E+01     1.420084187054000E+01     1.437551222555000E+01
             1.455233102592000E+01     1.473132469754000E+01     1.491251999132000E+01     1.509594398721000E+01
             1.528162409826000E+01     1.546958807467000E+01     1.565986400799000E+01     1.585248033528000E+01
             1.604746584341000E+01     1.624484967328000E+01     1.644466132426000E+01     1.664693065855000E+01
             1.685168790565000E+01     1.705896366689000E+01     1.726878891999000E+01     1.748119502371000E+01
             1.769621372250000E+01     1.791387715129000E+01     1.813421784025000E+01     1.835726871968000E+01
             1.858306312494000E+01     1.881163480137000E+01     1.904301790943000E+01     1.927724702971000E+01
             1.951435716818000E+01     1.975438376135000E+01     1.999736268161000E+01     2.024333024260000E+01
             2.049232320458000E+01     2.074437878000000E+01     2.099953463899000E+01     2.125782891505000E+01
             2.151930021071000E+01     2.178398760330000E+01     2.205193065082000E+01     2.232316939782000E+01
             2.259774438142000E+01     2.287569663731000E+01     2.315706770595000E+01     2.344189963873000E+01
             2.373023500429000E+01     2.402211689484000E+01     2.431758893265000E+01     2.461669527652000E+01
             2.491948062842000E+01     2.522599024015000E+01     2.553626992010000E+01     2.585036604012000E+01
             2.616832554241000E+01     2.649019594659000E+01     2.681602535673000E+01     2.714586246862000E+01
             2.747975657698000E+01     2.781775758288000E+01     2.815991600115000E+01     2.850628296796000E+01
             2.885691024847000E+01     2.921185024452000E+01     2.957115600253000E+01     2.993488122136000E+01
             3.030308026038000E+01     3.067580814759000E+01     3.105312058780000E+01     3.143507397103000E+01
             3.182172538088000E+01     3.221313260306000E+01     3.260935413408000E+01     3.301044918993000E+01
             3.341647771496000E+01     3.382750039086000E+01     3.424357864567000E+01     3.466477466301000E+01
             3.509115139136000E+01     3.552277255348000E+01     3.595970265588000E+01     3.640200699855000E+01
             3.684975168463000E+01     3.730300363035000E+01     3.776183057501000E+01     3.822630109108000E+01
             3.869648459450000E+01     3.917245135501000E+01     3.965427250668000E+01     4.014202005851000E+01
             4.063576690523000E+01     4.113558683816000E+01     4.164155455627000E+01     4.215374567732000E+01
             4.267223674915000E+01     4.319710526116000E+01     4.372842965587000E+01     4.426628934064000E+01
             4.481076469953000E+01     4.536193710534000E+01     4.591988893173000E+01     4.648470356559000E+01
             4.705646541945000E+01     4.763525994411000E+01     4.822117364142000E+01     4.881429407721000E+01
             4.941470989436000E+01     5.002251082606000E+01     5.063778770922000E+01     5.126063249804000E+01
             5.189113827777000E+01     5.252939927859000E+01     5.317551088971000E+01     5.382956967366000E+01
             5.449167338064000E+01     5.516192096322000E+01     5.584041259107000E+01     5.652724966594000E+01
             5.722253483683000E+01     5.792637201533000E+01     5.863886639112000E+01     5.936012444772000E+01
             6.009025397843000E+01     6.082936410237000E+01     6.157756528083000E+01     6.233496933378000E+01
             6.310168945659000E+01     6.387784023690000E+01     6.466353767182000E+01     6.545889918518000E+01
             6.626404364516000E+01     6.707909138199000E+01     6.790416420599000E+01     6.873938542573001E+01
             6.958487986646000E+01     7.044077388882000E+01     7.130719540765000E+01     7.218427391116001E+01
             7.307214048026999E+01     7.397092780817999E+01     7.488077022022000E+01     7.580180369393000E+01
             7.673416587936001E+01     7.767799611968000E+01     7.863343547194999E+01
    </PP_R>
    <PP_RAB type="real" size="983" columns="4">
             5.877389241619289E-06     5.949681129291680E-06     6.022862207182155E-06     6.096943412330445E-06
             6.171935816302294E-06     6.247850626842272E-06     6.324699189552266E-06     6.402492989584631E-06
             6.481243653356142E-06     6.560962950292488E-06     6.641662794581335E-06     6.723355246954732E-06
             6.806052516492281E-06     6.889766962445121E-06     6.974511096083103E-06     7.060297582563999E-06