<UPF version="2.0.1">
  <PP_INFO>
    local psp - psp6 format
    79.000    19.000   20210830  zatom,zion,pspd
    6  11  0  0    1131 0  pspcode,pspxc,lmax,lloc,mmax,r2well
    0   0   0    rchrg,fchrg,qchrg
    5---- no use
    6---- no use
    7---- no use
    1.9000E+01  1    zion   lmax+1
    0.0000    0.0000    0.0000   0.0000
    0.0000    0.0000    0.0000
    0.0000    0.0000    0.0000
    0.0000    0.0000    0.0000
    0.0000    0.0000    0.0000
    0.0000    0.0000    0.0000
    0.0000    0.0000    0.0000
    0.0000    0.0000    0.0000
    0.0000    0.0000    0.0000
    0.0000    0.0000    0.0000
    md5 43ea91650d7da404224f8125146690dc au_lps.cpi
  </PP_INFO>
  <!--                               -->
  <!-- END OF HUMAN READABLE SECTION -->
  <!--                               -->
  <PP_HEADER
            generated="DFTpy"
            author="shaoxc"
            date="Wed Apr 17 11:10:30 2024"
            comment=""
            element="Au"
            pseudo_type="NC"
            relativistic="nonrelativistic"
            is_ultrasoft="F"
            is_paw="F"
            is_coulomb="F"
            has_so="F"
            has_wfc="F"
            has_gipaw="F"
            paw_as_gipaw="F"
            core_correction="F"
            functional="pbe"
            z_valence="19.0"
            total_psenergy="0.0"
            wfc_cutoff="0.0"
            rho_cutoff="0.0"
            l_max="1"
            l_max_rho="0"
            l_local="-1"
            mesh_size="1131"
            number_of_wfc="0"
            number_of_proj="1"/>
  <PP_MESH>
    <PP_R type="real" size="1131" columns="4">
             7.911392405063000E-05     8.008702531646000E-05     8.107209572785000E-05     8.206928250530000E-05
             8.307873468012000E-05     8.410060311668000E-05     8.513504053502001E-05     8.618220153360000E-05
             8.724224261246000E-05     8.831532219659000E-05     8.940160065961000E-05     9.050124034773001E-05
             9.161440560400001E-05     9.274126279292999E-05     9.388198032528000E-05     9.503672868328999E-05
             9.620568044608999E-05     9.738901031558000E-05     9.858689514246000E-05     9.979951395271001E-05
             1.010270479743000E-04     1.022696806644000E-04     1.035275977366000E-04     1.048009871888000E-04
             1.060900393312000E-04     1.073949468149000E-04     1.087159046608000E-04     1.100531102881000E-04
             1.114067635446000E-04     1.127770667362000E-04     1.141642246571000E-04     1.155684446204000E-04
             1.169899364892000E-04     1.184289127080000E-04     1.198855883343000E-04     1.213601810708000E-04
             1.228529112980000E-04     1.243640021070000E-04     1.258936793329000E-04     1.274421715887000E-04
             1.290097102992000E-04     1.305965297359000E-04     1.322028670517000E-04     1.338289623164000E-04
             1.354750585529000E-04     1.371414017731000E-04     1.388282410149000E-04     1.405358283794000E-04
             1.422644190684000E-04     1.440142714230000E-04     1.457856469615000E-04     1.475788104191000E-04
             1.493940297873000E-04     1.512315763537000E-04     1.530917247428000E-04     1.549747529571000E-04
             1.568809424185000E-04     1.588105780103000E-04     1.607639481198000E-04     1.627413446817000E-04
             1.647430632213000E-04     1.667694028989000E-04     1.688206665545000E-04     1.708971607532000E-04
             1.729991958304000E-04     1.751270859391000E-04     1.772811490962000E-04     1.794617072301000E-04
             1.816690862290000E-04     1.839036159896000E-04     1.861656304663000E-04     1.884554677210000E-04
             1.907734699740000E-04     1.931199836547000E-04     1.954953594536000E-04     1.978999523749000E-04
             2.003341217891000E-04     2.027982314871000E-04     2.052926497344000E-04     2.078177493261000E-04
             2.103739076428000E-04     2.129615067068000E-04     2.155809332393000E-04     2.182325787182000E-04
             2.209168394364000E-04     2.236341165615000E-04     2.263848161952000E-04     2.291693494344000E-04
             2.319881324324000E-04     2.348415864614000E-04     2.377301379748000E-04     2.406542186719000E-04
             2.436142655616000E-04     2.466107210280000E-04     2.496440328966000E-04     2.527146545013000E-04
             2.558230447516000E-04     2.589696682021000E-04     2.621549951210000E-04     2.653795015610000E-04
             2.686436694302000E-04     2.719479865642000E-04     2.752929467989000E-04     2.786790500445000E-04
             2.821068023601000E-04     2.855767160291000E-04     2.890893096362000E-04     2.926451081448000E-04
             2.962446429750000E-04     2.998884520835000E-04     3.035770800442000E-04     3.073110781287000E-04
             3.110910043897000E-04     3.149174237437000E-04     3.187909080557000E-04     3.227120362248000E-04
             3.266813942704000E-04     3.306995754199000E-04     3.347671801976000E-04     3.388848165140000E-04
             3.430530997571000E-04     3.472726528841000E-04     3.515441065146000E-04     3.558680990248000E-04
             3.602452766428000E-04     3.646762935455000E-04     3.691618119561000E-04     3.737025022431000E-04
             3.782990430207000E-04     3.829521212499000E-04     3.876624323412000E-04     3.924306802591000E-04
             3.972575776262000E-04     4.021438458310000E-04     4.070902151348000E-04     4.120974247809000E-04
             4.171662231057000E-04     4.222973676499000E-04     4.274916252720000E-04     4.327497722629000E-04
             4.380725944617000E-04     4.434608873736000E-04     4.489154562883000E-04     4.544371164006000E-04
             4.600266929323000E-04     4.656850212554000E-04     4.714129470169000E-04     4.772113262652000E-04
             4.830810255782000E-04     4.890229221928000E-04     4.950379041358000E-04     5.011268703567000E-04
             5.072907308621000E-04     5.135304068517000E-04     5.198468308559001E-04     5.262409468755000E-04
             5.327137105220000E-04     5.392660891614000E-04     5.458990620581000E-04     5.526136205215000E-04
             5.594107680539000E-04     5.662915205009000E-04     5.732569062031000E-04     5.803079661494000E-04
             5.874457541330000E-04     5.946713369089000E-04     6.019857943528000E-04     6.093902196234000E-04
             6.168857193248000E-04     6.244734136724000E-04     6.321544366606000E-04     6.399299362315000E-04
             6.478010744472000E-04     6.557690276629000E-04     6.638349867030999E-04     6.720001570396000E-04
             6.802657589712000E-04     6.886330278065000E-04     6.971032140485000E-04     7.056775835813000E-04
             7.143574178594000E-04     7.231440140991000E-04     7.320386854725000E-04     7.410427613038000E-04
             7.501575872678000E-04     7.593845255912000E-04     7.687249552560000E-04     7.781802722057000E-04
             7.877518895538000E-04     7.974412377953000E-04     8.072497650202000E-04     8.171789371299000E-04
             8.272302380566000E-04     8.374051699847000E-04     8.477052535755000E-04     8.581320281945000E-04
             8.686870521413000E-04     8.793719028826000E-04     8.901881772881000E-04     9.011374918686999E-04
             9.122214830187000E-04     9.234418072599000E-04     9.348001414891000E-04     9.462981832295000E-04
             9.579376508832001E-04     9.697202839890000E-04     9.816478434820999E-04     9.937221119569000E-04
             1.005944893934000E-03     1.018318016129000E-03     1.030843327728000E-03     1.043522700659000E-03
             1.056358029877000E-03     1.069351233644000E-03     1.082504253818000E-03     1.095819056140000E-03
             1.109297630531000E-03     1.122941991386000E-03     1.136754177880000E-03     1.150736254268000E-03
             1.164890310196000E-03     1.179218461011000E-03     1.193722848082000E-03     1.208405639113000E-03
             1.223269028474000E-03     1.238315237524000E-03     1.253546514946000E-03     1.268965137080000E-03
             1.284573408266000E-03     1.300373661188000E-03     1.316368257220000E-03     1.332559586784000E-03
             1.348950069701000E-03     1.365542155559000E-03     1.382338324072000E-03     1.399341085458000E-03
             1.416552980809000E-03     1.433976582473000E-03     1.451614494438000E-03     1.469469352719000E-03
             1.487543825758000E-03     1.505840614814000E-03     1.524362454377000E-03     1.543112112566000E-03
             1.562092391550000E-03     1.581306127966000E-03     1.600756193340000E-03     1.620445494518000E-03
             1.640376974101000E-03     1.660553610882000E-03     1.680978420296000E-03     1.701654454866000E-03
             1.722584804661000E-03     1.743772597758000E-03     1.765221000710000E-03     1.786933219019000E-03
             1.808912497613000E-03     1.831162121334000E-03     1.853685415426000E-03     1.876485746036000E-03
             1.899566520712000E-03     1.922931188917000E-03     1.946583242540000E-03     1.970526216424000E-03
             1.994763688886000E-03     2.019299282259000E-03     2.044136663431000E-03     2.069279544391000E-03
             2.094731682787000E-03     2.120496882485000E-03     2.146578994140000E-03     2.172981915768000E-03
             2.199709593332000E-03     2.226766021330000E-03     2.254155243392000E-03     2.281881352886000E-03
             2.309948493526000E-03     2.338360859997000E-03     2.367122698575000E-03     2.396238307767000E-03
             2.425712038953000E-03     2.455548297032000E-03     2.485751541085000E-03     2.516326285041000E-03
             2.547277098346000E-03     2.578608606656000E-03     2.610325492518000E-03     2.642432496076000E-03
             2.674934415778000E-03     2.707836109092000E-03     2.741142493234000E-03     2.774858545900000E-03
             2.808989306015000E-03     2.843539874479000E-03     2.878515414935000E-03     2.913921154539000E-03
             2.949762384740000E-03     2.986044462072000E-03     3.022772808955000E-03     3.059952914505000E-03
             3.097590335354000E-03     3.135690696479000E-03     3.174259692045000E-03     3.213303086258000E-03
             3.252826714219000E-03     3.292836482803000E-03     3.333338371542000E-03     3.374338433512000E-03
             3.415842796244000E-03     3.457857662638000E-03     3.500389311888000E-03     3.543444100425000E-03
             3.587028462860000E-03     3.631148912953000E-03     3.675812044582000E-03     3.721024532731000E-03
             3.766793134483000E-03     3.813124690037000E-03     3.860026123725000E-03     3.907504445047000E-03
             3.955566749721000E-03     4.004220220742000E-03     4.053472129458000E-03     4.103329836650000E-03
             4.153800793641000E-03     4.204892543402000E-03     4.256612721686000E-03     4.308969058163000E-03
             4.361969377578000E-03     4.415621600923000E-03     4.469933746614000E-03     4.524913931697000E-03
             4.580570373057000E-03     4.636911388646000E-03     4.693945398726000E-03     4.751680927130000E-03
             4.810126602534000E-03     4.869291159745000E-03     4.929183441010000E-03     4.989812397335000E-03
             5.051187089822000E-03     5.113316691027000E-03     5.176210486326000E-03     5.239877875308000E-03
             5.304328373174000E-03     5.369571612164000E-03     5.435617342994000E-03     5.502475436313000E-03
             5.570155884179000E-03     5.638668801555000E-03     5.708024427814000E-03     5.778233128276000E-03
             5.849305395754000E-03     5.921251852122000E-03     5.994083249903000E-03     6.067810473877000E-03
             6.142444542705000E-03     6.217996610581000E-03     6.294477968891000E-03     6.371900047908000E-03
             6.450274418497000E-03     6.529612793845000E-03     6.609927031209000E-03     6.691229133693000E-03
             6.773531252037000E-03     6.856845686438000E-03     6.941184888381000E-03     7.026561462508000E-03
             7.112988168497000E-03     7.200477922969000E-03     7.289043801422000E-03     7.378699040179000E-03
             7.469457038373000E-03     7.561331359945000E-03     7.654335735673000E-03     7.748484065221000E-03
             7.843790419224001E-03     7.940269041380000E-03     8.037934350589001E-03     8.136800943101000E-03
             8.236883594702000E-03     8.338197262916000E-03     8.440757089250000E-03     8.544578401448000E-03
             8.649676715786000E-03     8.756067739390000E-03     8.863767372584000E-03     8.972791711266999E-03
             9.083157049316001E-03     9.194879881022000E-03     9.307976903558999E-03     9.422465019472999E-03
             9.538361339211999E-03     9.655683183684000E-03     9.774448086844001E-03     9.894673798312000E-03
             1.001637828603000E-02     1.013957973895000E-02     1.026429656974000E-02     1.039054741755000E-02
             1.051835115078000E-02     1.064772686994000E-02     1.077869391044000E-02     1.091127184553000E-02
             1.104548048923000E-02     1.118133989925000E-02     1.131887038001000E-02     1.145809248569000E-02
             1.159902702326000E-02     1.174169505565000E-02     1.188611790483000E-02     1.203231715506000E-02
             1.218031465607000E-02     1.233013252634000E-02     1.248179315641000E-02     1.263531921224000E-02
             1.279073363855000E-02     1.294805966230000E-02     1.310732079615000E-02     1.326854084194000E-02
             1.343174389430000E-02     1.359695434420000E-02     1.376419688263000E-02     1.393349650429000E-02
             1.410487851129000E-02     1.427836851698000E-02     1.445399244974000E-02     1.463177655687000E-02
             1.481174740852000E-02     1.499393190164000E-02     1.517835726403000E-02     1.536505105838000E-02
             1.555404118640000E-02     1.574535589299000E-02     1.593902377047000E-02     1.613507376285000E-02
             1.633353517013000E-02     1.653443765273000E-02     1.673781123586000E-02     1.694368631406000E-02
             1.715209365572000E-02     1.736306440769000E-02     1.757663009990000E-02     1.779282265013000E-02
             1.801167436873000E-02     1.823321796346000E-02     1.845748654441000E-02     1.868451362891000E-02
             1.891433314654000E-02     1.914697944424000E-02     1.938248729141000E-02     1.962089188509000E-02
             1.986222885528000E-02     2.010653427020000E-02     2.035384464172000E-02     2.060419693082000E-02
             2.085762855307000E-02     2.111417738427000E-02     2.137388176610000E-02     2.163678051182000E-02
             2.190291291211000E-02     2.217231874093000E-02     2.244503826145000E-02     2.272111223206000E-02
             2.300058191252000E-02     2.328348907004000E-02     2.356987598560000E-02     2.385978546022000E-02
             2.415326082139000E-02     2.445034592949000E-02     2.475108518442000E-02     2.505552353219000E-02
             2.536370647164000E-02     2.567568006124000E-02     2.599149092599000E-02     2.631118626438000E-02
             2.663481385543000E-02     2.696242206585000E-02     2.729405985726000E-02     2.762977679351000E-02
             2.796962304807000E-02     2.831364941156000E-02     2.866190729932000E-02     2.901444875910000E-02
             2.937132647884000E-02     2.973259379453000E-02     3.009830469820000E-02     3.046851384599000E-02
             3.084327656630000E-02     3.122264886806000E-02     3.160668744914000E-02     3.199544970476000E-02
             3.238899373613000E-02     3.278737835909000E-02     3.319066311290000E-02     3.359890826919000E-02
             3.401217484090000E-02     3.443052459145000E-02     3.485402004392000E-02     3.528272449046000E-02
             3.571670200169000E-02     3.615601743631000E-02     3.660073645078000E-02     3.705092550912000E-02
             3.750665189289000E-02     3.796798371117000E-02     3.843498991082000E-02     3.890774028672000E-02
             3.938630549225000E-02     3.987075704980000E-02     4.036116736151000E-02     4.085760972006000E-02
             4.136015831962000E-02     4.186888826695000E-02     4.238387559263000E-02     4.290519726242000E-02
             4.343293118875000E-02     4.396715624237000E-02     4.450795226415000E-02     4.505540007700000E-02
             4.560958149795000E-02     4.617057935037000E-02     4.673847747638000E-02     4.731336074934000E-02
             4.789531508656000E-02     4.848442746212000E-02     4.908078591991000E-02     4.968447958672000E-02
             5.029559868564000E-02     5.091423454947000E-02     5.154047963443000E-02     5.217442753394000E-02
             5.281617299260000E-02     5.346581192041000E-02     5.412344140703000E-02     5.478915973634000E-02
             5.546306640110000E-02     5.614526211783000E-02     5.683584884188000E-02     5.753492978263000E-02
             5.824260941896000E-02     5.895899351481000E-02     5.968418913505000E-02     6.041830466141000E-02
             6.116144980874000E-02     6.191373564139000E-02     6.267527458978001E-02     6.344618046723000E-02
             6.422656848698000E-02     6.501655527937000E-02     6.581625890930000E-02     6.662579889389000E-02
             6.744529622029000E-02     6.827487336379000E-02     6.911465430617000E-02     6.996476455414000E-02
             7.082533115815000E-02     7.169648273140000E-02     7.257834946899000E-02     7.347106316745999E-02
             7.437475724442000E-02     7.528956675853000E-02     7.621562842966000E-02     7.715308065934000E-02
             7.810206355145000E-02     7.906271893312999E-02     8.003519037600999E-02     8.101962321764000E-02
             8.201616458321000E-02     8.302496340759000E-02     8.404617045750000E-02     8.507993835413000E-02
             8.612642159588001E-02     8.718577658151000E-02     8.825816163347000E-02     8.934373702156000E-02
             9.044266498692000E-02     9.155510976626000E-02     9.268123761638999E-02     9.382121683907001E-02
             9.497521780619000E-02     9.614341298520000E-02     9.732597696492000E-02     9.852308648159000E-02
             9.973492044531000E-02     1.009616599668000E-01     1.022034883844000E-01     1.034605912915000E-01
             1.047331565644000E-01     1.060213743901000E-01     1.073254372951000E-01     1.086455401739000E-01
             1.099818803180000E-01     1.113346574459000E-01     1.127040737325000E-01     1.140903338394000E-01
             1.154936449456000E-01     1.169142167785000E-01     1.183522616448000E-01     1.198079944631000E-01
             1.212816327950000E-01     1.227733968783000E-01     1.242835096599000E-01     1.258121968288000E-01
             1.273596868498000E-01     1.289262109980000E-01     1.305120033933000E-01     1.321173010350000E-01
             1.337423438378000E-01     1.353873746670000E-01     1.370526393754000E-01     1.387383868397000E-01
             1.404448689978000E-01     1.421723408865000E-01     1.439210606794000E-01     1.456912897257000E-01
             1.474832925894000E-01     1.492973370882000E-01     1.511336943344000E-01     1.529926387747000E-01
             1.548744482317000E-01     1.567794039449000E-01     1.587077906134000E-01     1.606598964380000E-01
             1.626360131641000E-01     1.646364361261000E-01     1.666614642904000E-01     1.687114003012000E-01
             1.707865505249000E-01     1.728872250964000E-01     1.750137379650000E-01     1.771664069420000E-01
             1.793455537474000E-01     1.815515040585000E-01     1.837845875584000E-01     1.860451379854000E-01
             1.883334931826000E-01     1.906499951488000E-01     1.929949900891000E-01     1.953688284672000E-01
             1.977718650573000E-01     2.002044589975000E-01     2.026669738432000E-01     2.051597776215000E-01
             2.076832428862000E-01     2.102377467737000E-01     2.128236710590000E-01     2.154414022130000E-01
             2.180913314603000E-01     2.207738548372000E-01     2.234893732517000E-01     2.262382925427000E-01
             2.290210235410000E-01     2.318379821306000E-01     2.346895893108000E-01     2.375762712593000E-01
             2.404984593958000E-01     2.434565904463000E-01     2.464511065088000E-01     2.494824551189000E-01
             2.525510893168000E-01     2.556574677155000E-01     2.588020545683000E-01     2.619853198395000E-01
             2.652077392736000E-01     2.684697944666000E-01     2.717719729386000E-01     2.751147682057000E-01
             2.784986798546000E-01     2.819242136169000E-01     2.853918814444000E-01     2.889022015861000E-01
             2.924556986656000E-01     2.960529037592000E-01     2.996943544755000E-01     3.033805950355000E-01
             3.071121763544000E-01     3.108896561236000E-01     3.147135988939000E-01     3.185845761603000E-01
             3.225031664471000E-01     3.264699553944000E-01     3.304855358457000E-01     3.345505079366000E-01
             3.386654791842000E-01     3.428310645782000E-01     3.470478866725000E-01     3.513165756786000E-01
             3.556377695594000E-01     3.600121141250000E-01     3.644402631288000E-01     3.689228783653000E-01
             3.734606297691000E-01     3.780541955153000E-01     3.827042621201000E-01     3.874115245442000E-01
             3.921766862961000E-01     3.970004595376000E-01     4.018835651899000E-01     4.068267330417000E-01
             4.118307018581000E-01     4.168962194910000E-01     4.220240429907000E-01     4.272149387195000E-01
             4.324696824657000E-01     4.377890595601000E-01     4.431738649927000E-01     4.486249035321000E-01
             4.541429898455000E-01     4.597289486206000E-01     4.653836146887000E-01     4.711078331493000E-01
             4.769024594971000E-01     4.827683597489000E-01     4.887064105738000E-01     4.947174994238000E-01
             5.008025246668000E-01     5.069623957202000E-01     5.131980331875000E-01     5.195103689957000E-01
             5.259003465344000E-01     5.323689207967000E-01     5.389170585225000E-01     5.455457383424001E-01
             5.522559509240000E-01     5.590486991203000E-01     5.659249981195000E-01     5.728858755964000E-01
             5.799323718661999E-01     5.870655400402000E-01     5.942864461827000E-01     6.015961694707000E-01
             6.089958023552000E-01     6.164864507242001E-01     6.240692340681000E-01     6.317452856471000E-01
             6.395157526606000E-01     6.473817964183000E-01     6.553445925143000E-01     6.634053310022000E-01
             6.715652165735000E-01     6.798254687374000E-01     6.881873220028000E-01     6.966520260635000E-01
             7.052208459840000E-01     7.138950623896000E-01     7.226759716570000E-01     7.315648861084000E-01
             7.405631342076000E-01     7.496720607583000E-01     7.588930271056000E-01     7.682274113390000E-01
             7.776766084985000E-01     7.872420307830000E-01     7.969251077617000E-01     8.067272865871000E-01
             8.166500322122000E-01     8.266948276084000E-01     8.368631739879000E-01     8.471565910280000E-01
             8.575766170976000E-01     8.681248094880000E-01     8.788027446447000E-01     8.896120184038000E-01
             9.005542462302000E-01     9.116310634588000E-01     9.228441255393000E-01     9.341951082835001E-01
             9.456857081153000E-01     9.573176423252000E-01     9.690926493258000E-01     9.810124889125000E-01
             9.930789425261000E-01     1.005293813519000E+00     1.017658927425000E+00     1.030176132233000E+00
             1.042847298659000E+00     1.055674320433000E+00     1.068659114574000E+00     1.081803621683000E+00
             1.095109806230000E+00     1.108579656847000E+00     1.122215186626000E+00     1.136018433421000E+00
             1.149991460153000E+00     1.164136355112000E+00     1.178455232280000E+00     1.192950231637000E+00
             1.207623519486000E+00     1.222477288776000E+00     1.237513759428000E+00     1.252735178669000E+00
             1.268143821367000E+00     1.283741990369000E+00     1.299532016851000E+00     1.315516260658000E+00
             1.331697110664000E+00     1.348076985125000E+00     1.364658332043000E+00     1.381443629527000E+00
             1.398435386170000E+00     1.415636141420000E+00     1.433048465959000E+00     1.450674962090000E+00
             1.468518264124000E+00     1.486581038773000E+00     1.504865985550000E+00     1.523375837172000E+00
             1.542113359969000E+00     1.561081354297000E+00     1.580282654955000E+00     1.599720131611000E+00
             1.619396689230000E+00     1.639315268507000E+00     1.659478846310000E+00     1.679890436119000E+00
             1.700553088484000E+00     1.721469891472000E+00     1.742643971137000E+00     1.764078491982000E+00
             1.785776657433000E+00     1.807741710320000E+00     1.829976933357000E+00     1.852485649637000E+00
             1.875271223128000E+00     1.898337059172000E+00     1.921686605000000E+00     1.945323350241000E+00
             1.969250827449000E+00     1.993472612627000E+00     2.017992325762000E+00     2.042813631369000E+00
             2.067940239035000E+00     2.093375903975000E+00     2.119124427594000E+00     2.145189658053000E+00
             2.171575490847000E+00     2.198285869385000E+00     2.225324785578000E+00     2.252696280441000E+00
             2.280404444690000E+00     2.308453419360000E+00     2.336847396418000E+00     2.365590619394000E+00
             2.394687384013000E+00     2.424142038836000E+00     2.453958985914000E+00     2.484142681440000E+00
             2.514697636422000E+00     2.545628417350000E+00     2.576939646884000E+00     2.608636004540000E+00
             2.640722227396000E+00     2.673203110793000E+00     2.706083509056000E+00     2.739368336217000E+00
             2.773062566753000E+00     2.807171236324000E+00     2.841699442531000E+00     2.876652345674000E+00
             2.912035169525000E+00     2.947853202111000E+00     2.984111796497000E+00     3.020816371593000E+00
             3.057972412964000E+00     3.095585473644000E+00     3.133661174969000E+00     3.172205207421000E+00
             3.211223331473000E+00     3.250721378450000E+00     3.290705251405000E+00     3.331180925997000E+00
             3.372154451387000E+00     3.413631951139000E+00     3.455619624138000E+00     3.498123745515000E+00
             3.541150667585000E+00     3.584706820796000E+00     3.628798714692000E+00     3.673432938883000E+00
             3.718616164031000E+00     3.764355142848000E+00     3.810656711105000E+00     3.857527788652000E+00
             3.904975380452000E+00     3.953006577632000E+00     4.001628558537000E+00     4.050848589807000E+00
             4.100674027461000E+00     4.151112317999000E+00     4.202170999511000E+00     4.253857702805000E+00
             4.306180152549000E+00     4.359146168425000E+00     4.412763666297000E+00     4.467040659392000E+00
             4.521985259503000E+00     4.577605678195000E+00     4.633910228037000E+00     4.690907323842000E+00
             4.748605483925000E+00     4.807013331377000E+00     4.866139595353000E+00     4.925993112376000E+00
             4.986582827658000E+00     5.047917796438000E+00     5.110007185335000E+00     5.172860273714000E+00
             5.236486455081000E+00     5.300895238478000E+00     5.366096249912000E+00     5.432099233786000E+00
             5.498914054361000E+00     5.566550697230000E+00     5.635019270806000E+00     5.704330007837000E+00
             5.774493266933000E+00     5.845519534116000E+00     5.917419424386000E+00     5.990203683306000E+00
             6.063883188610000E+00     6.138468951830000E+00     6.213972119938000E+00     6.290403977013000E+00
             6.367775945930000E+00     6.446099590065000E+00     6.525386615023000E+00     6.605648870388000E+00
             6.686898351494000E+00     6.769147201217000E+00     6.852407711792000E+00     6.936692326647000E+00
             7.022013642265000E+00     7.108384410065000E+00     7.195817538308000E+00     7.284326094030000E+00
             7.373923304986000E+00     7.464622561638000E+00     7.556437419146000E+00     7.649381599401000E+00
             7.743468993074000E+00     7.838713661689000E+00     7.935129839727000E+00     8.032731936756001E+00
             8.131534539578000E+00     8.231552414415001E+00     8.332800509111999E+00     8.435293955374000E+00
             8.539048071025000E+00     8.644078362299000E+00     8.750400526155000E+00     8.858030452627000E+00
             8.966984227194001E+00     9.077278133188999E+00     9.188928654227000E+00     9.301952476674000E+00
             9.416366492137000E+00     9.532187799990000E+00     9.649433709929999E+00     9.768121744562000E+00
             9.888269642020999E+00     1.000989535862000E+01     1.013301707153000E+01     1.025765318151000E+01
             1.038382231564000E+01     1.051154333012000E+01     1.064083531308000E+01     1.077171758744000E+01
             1.090420971376000E+01     1.103833149324000E+01     1.117410297061000E+01     1.131154443715000E+01
             1.145067643372000E+01     1.159151975386000E+01     1.173409544683000E+01     1.187842482082000E+01
             1.202452944612000E+01     1.217243115831000E+01     1.232215206156000E+01     1.247371453191000E+01
             1.262714122065000E+01     1.278245505767000E+01     1.293967925488000E+01     1.309883730971000E+01
             1.325995300862000E+01     1.342305043063000E+01     1.358815395093000E+01     1.375528824452000E+01
             1.392447828993000E+01     1.409574937290000E+01     1.426912709018000E+01     1.444463735339000E+01
             1.462230639284000E+01     1.480216076147000E+01     1.498422733884000E+01     1.516853333510000E+01
             1.535510629513000E+01     1.554397410256000E+01     1.573516498402000E+01     1.592870751332000E+01
             1.612463061573000E+01     1.632296357231000E+01     1.652373602425000E+01     1.672697797735000E+01