<UPF version="2.0.1">
  <PP_INFO>
    local psp - psp6 format
    24.000    14.000   20210830  zatom,zion,pspd
    6  11  0  0    1033 0  pspcode,pspxc,lmax,lloc,mmax,r2well
    0   0   0    rchrg,fchrg,qchrg
    5---- no use
    6---- no use
    7---- no use
    1.4000E+01  1    zion   lmax+1
    0.0000    0.0000    0.0000   0.0000
    0.0000    0.0000    0.0000
    0.0000    0.0000    0.0000
    0.0000    0.0000    0.0000
    0.0000    0.0000    0.0000
    0.0000    0.0000    0.0000
    0.0000    0.0000    0.0000
    0.0000    0.0000    0.0000
    0.0000    0.0000    0.0000
    0.0000    0.0000    0.0000
    md5 c75c6c8ec23d0360c9554d12ba479eac cr_lps_fitmag.cpi
  </PP_INFO>
  <!--                               -->
  <!-- END OF HUMAN READABLE SECTION -->
  <!--                               -->
  <PP_HEADER
            generated="DFTpy"
            author="shaoxc"
            date="Wed Apr 17 11:11:23 2024"
            comment=""
            element="Cr"
            pseudo_type="NC"
            relativistic="nonrelativistic"
            is_ultrasoft="F"
            is_paw="F"
            is_coulomb="F"
            has_so="F"
            has_wfc="F"
            has_gipaw="F"
            paw_as_gipaw="F"
            core_correction="F"
            functional="pbe"
            z_valence="14.0"
            total_psenergy="0.0"
            wfc_cutoff="0.0"
            rho_cutoff="0.0"
            l_max="1"
            l_max_rho="0"
            l_local="-1"
            mesh_size="1033"
            number_of_wfc="0"
            number_of_proj="1"/>
  <PP_MESH>
    <PP_R type="real" size="1033" columns="4">
             2.604166666667000E-04     2.636197916667000E-04     2.668623151042000E-04     2.701447215799000E-04
             2.734675016554000E-04     2.768311519257000E-04     2.802361750944000E-04     2.836830800481000E-04
             2.871723819327000E-04     2.907046022304000E-04     2.942802688379000E-04     2.978999161446000E-04
             3.015640851132000E-04     3.052733233601000E-04     3.090281852374000E-04     3.128292319158000E-04
             3.166770314684000E-04     3.205721589554000E-04     3.245151965106000E-04     3.285067334277000E-04
             3.325473662488000E-04     3.366376988537000E-04     3.407783425496000E-04     3.449699161630000E-04
             3.492130461318000E-04     3.535083665992000E-04     3.578565195084000E-04     3.622581546983000E-04
             3.667139300011000E-04     3.712245113401000E-04     3.757905728296000E-04     3.804127968754000E-04
             3.850918742770000E-04     3.898285043306000E-04     3.946233949338000E-04     3.994772626915000E-04
             4.043908330226000E-04     4.093648402688000E-04     4.144000278041000E-04     4.194971481461000E-04
             4.246569630683000E-04     4.298802437140000E-04     4.351677707117000E-04     4.405203342915000E-04
             4.459387344033000E-04     4.514237808364000E-04     4.569762933407000E-04     4.625971017488000E-04
             4.682870461003000E-04     4.740469767673000E-04     4.798777545816000E-04     4.857802509629000E-04
             4.917553480498000E-04     4.978039388308000E-04     5.039269272784000E-04     5.101252284839000E-04
             5.163997687943000E-04     5.227514859505000E-04     5.291813292276000E-04     5.356902595771000E-04
             5.422792497699000E-04     5.489492845421000E-04     5.557013607420000E-04     5.625364874791000E-04
             5.694556862751000E-04     5.764599912163000E-04     5.835504491082000E-04     5.907281196323001E-04
             5.979940755037000E-04     6.053494026324000E-04     6.127952002848000E-04     6.203325812482999E-04
             6.279626719977000E-04     6.356866128632000E-04     6.435055582015001E-04     6.514206765673000E-04
             6.594331508891000E-04     6.675441786451000E-04     6.757549720424000E-04     6.840667581985000E-04
             6.924807793244000E-04     7.009982929101000E-04     7.096205719128000E-04     7.183489049473999E-04
             7.271845964782000E-04     7.361289670149000E-04     7.451833533092000E-04     7.543491085549000E-04
             7.636276025901000E-04     7.730202221020000E-04     7.825283708338000E-04     7.921534697951000E-04
             8.018969574736000E-04     8.117602900505000E-04     8.217449416181000E-04     8.318524044000000E-04
             8.420841889741000E-04     8.524418244985000E-04     8.629268589398000E-04     8.735408593048000E-04
             8.842854118743000E-04     8.951621224403000E-04     9.061726165463000E-04     9.173185397298000E-04
             9.286015577685000E-04     9.400233569291000E-04     9.515856442193000E-04     9.632901476432000E-04
             9.751386164592001E-04     9.871328214417000E-04     9.992745551454000E-04     1.011565632174000E-03
             1.024007889449000E-03     1.036603186490000E-03     1.049353405684000E-03     1.062260452573000E-03
             1.075326256140000E-03     1.088552769091000E-03     1.101941968150000E-03     1.115495854359000E-03
             1.129216453367000E-03     1.143105815744000E-03     1.157166017277000E-03     1.171399159290000E-03
             1.185807368949000E-03     1.200392799587000E-03     1.215157631022000E-03     1.230104069884000E-03
             1.245234349943000E-03     1.260550732448000E-03     1.276055506457000E-03     1.291750989186000E-03
             1.307639526353000E-03     1.323723492527000E-03     1.340005291485000E-03     1.356487356571000E-03
             1.373172151056000E-03     1.390062168514000E-03     1.407159933187000E-03     1.424468000365000E-03
             1.441988956770000E-03     1.459725420938000E-03     1.477680043615000E-03     1.495855508152000E-03
             1.514254530902000E-03     1.532879861632000E-03     1.551734283930000E-03     1.570820615623000E-03
             1.590141709195000E-03     1.609700452218000E-03     1.629499767780000E-03     1.649542614924000E-03
             1.669831989088000E-03     1.690370922553000E-03     1.711162484901000E-03     1.732209783465000E-03
             1.753515963802000E-03     1.775084210156000E-03     1.796917745941000E-03     1.819019834216000E-03
             1.841393778177000E-03     1.864042921649000E-03     1.886970649585000E-03     1.910180388575000E-03
             1.933675607355000E-03     1.957459817325000E-03     1.981536573078000E-03     2.005909472927000E-03
             2.030582159444000E-03     2.055558320005000E-03     2.080841687341000E-03     2.106436040095000E-03
             2.132345203389000E-03     2.158573049390000E-03     2.185123497898000E-03     2.212000516922000E-03
             2.239208123280000E-03     2.266750383196000E-03     2.294631412910000E-03     2.322855379289000E-03
             2.351426500454000E-03     2.380349046409000E-03     2.409627339680000E-03     2.439265755958000E-03
             2.469268724757000E-03     2.499640730071000E-03     2.530386311051000E-03     2.561510062677000E-03
             2.593016636448000E-03     2.624910741076000E-03     2.657197143191000E-03     2.689880668053000E-03
             2.722966200270000E-03     2.756458684533000E-03     2.790363126353000E-03     2.824684592807000E-03
             2.859428213298000E-03     2.894599180322000E-03     2.930202750240000E-03     2.966244244068000E-03
             3.002729048270000E-03     3.039662615564000E-03     3.077050465735000E-03     3.114898186464000E-03
             3.153211434157000E-03     3.191995934797000E-03     3.231257484795000E-03     3.271001951858000E-03
             3.311235275866000E-03     3.351963469759000E-03     3.393192620437000E-03     3.434928889669000E-03
             3.477178515012000E-03     3.519947810746000E-03     3.563243168818000E-03     3.607071059795000E-03
             3.651438033830000E-03     3.696350721647000E-03     3.741815835523000E-03     3.787840170300000E-03
             3.834430604394000E-03     3.881594100828000E-03     3.929337708269000E-03     3.977668562080000E-03
             4.026593885394000E-03     4.076120990184000E-03     4.126257278364000E-03     4.177010242887000E-03
             4.228387468875000E-03     4.280396634742000E-03     4.333045513349000E-03     4.386341973164000E-03
             4.440293979434000E-03     4.494909595381000E-03     4.550196983404000E-03     4.606164406300000E-03
             4.662820228497000E-03     4.720172917308000E-03     4.778231044190000E-03     4.837003286034000E-03
             4.896498426452000E-03     4.956725357098000E-03     5.017693078990000E-03     5.079410703861000E-03
             5.141887455519000E-03     5.205132671222000E-03     5.269155803078000E-03     5.333966419456000E-03
             5.399574206415000E-03     5.465988969154000E-03     5.533220633474000E-03     5.601279247266000E-03
             5.670174982008000E-03     5.739918134286000E-03     5.810519127338000E-03     5.881988512604000E-03
             5.954336971309000E-03     6.027575316056000E-03     6.101714492444000E-03     6.176765580701000E-03
             6.252739797344000E-03     6.329648496851000E-03     6.407503173362000E-03     6.486315462395000E-03
             6.566097142582000E-03     6.646860137436000E-03     6.728616517126000E-03     6.811378500287000E-03
             6.895158455840000E-03     6.979968904847000E-03     7.065822522377000E-03     7.152732139402000E-03
             7.240710744717000E-03     7.329771486877000E-03     7.419927676165000E-03     7.511192786582000E-03
             7.603580457857000E-03     7.697104497489000E-03     7.791778882808000E-03     7.887617763066001E-03
             7.984635461552000E-03     8.082846477729000E-03     8.182265489405000E-03     8.282907354925000E-03
             8.384787115391000E-03     8.487919996910001E-03     8.592321412872000E-03     8.698006966250000E-03
             8.804992451934999E-03     8.913293859094000E-03     9.022927373561000E-03     9.133909380255000E-03
             9.246256465633000E-03     9.359985420160000E-03     9.475113240828000E-03     9.591657133690000E-03
             9.709634516434000E-03     9.829063020986999E-03     9.949960496145001E-03     1.007234501025000E-02
             1.019623485387000E-02     1.032164854258000E-02     1.044860481965000E-02     1.057712265893000E-02
             1.070722126764000E-02     1.083892008923000E-02     1.097223880633000E-02     1.110719734364000E-02
             1.124381587097000E-02     1.138211480618000E-02     1.152211481830000E-02     1.166383683056000E-02
             1.180730202358000E-02     1.195253183847000E-02     1.209954798008000E-02     1.224837242024000E-02
             1.239902740101000E-02     1.255153543804000E-02     1.270591932393000E-02     1.286220213161000E-02
             1.302040721783000E-02     1.318055822661000E-02     1.334267909280000E-02     1.350679404564000E-02
             1.367292761240000E-02     1.384110462203000E-02     1.401135020888000E-02     1.418368981645000E-02
             1.435814920120000E-02     1.453475443637000E-02     1.471353191594000E-02     1.489450835850000E-02
             1.507771081131000E-02     1.526316665429000E-02     1.545090360414000E-02     1.564094971847000E-02
             1.583333340001000E-02     1.602808340083000E-02     1.622522882666000E-02     1.642479914123000E-02
             1.662682417066000E-02     1.683133410796000E-02     1.703835951749000E-02     1.724793133956000E-02
             1.746008089503000E-02     1.767483989004000E-02     1.789224042069000E-02     1.811231497786000E-02
             1.833509645209000E-02     1.856061813845000E-02     1.878891374155000E-02     1.902001738058000E-02
             1.925396359436000E-02     1.949078734657000E-02     1.973052403093000E-02     1.997320947651000E-02
             2.021887995307000E-02     2.046757217649000E-02     2.071932331427000E-02     2.097417099103000E-02
             2.123215329422000E-02     2.149330877974000E-02     2.175767647773000E-02     2.202529589841000E-02
             2.229620703796000E-02     2.257045038452000E-02     2.284806692425000E-02     2.312909814742000E-02
             2.341358605464000E-02     2.370157316311000E-02     2.399310251301000E-02     2.428821767392000E-02
             2.458696275131000E-02     2.488938239315000E-02     2.519552179659000E-02     2.550542671469000E-02
             2.581914346328000E-02     2.613671892788000E-02     2.645820057069000E-02     2.678363643771000E-02
             2.711307516589000E-02     2.744656599043000E-02     2.778415875211000E-02     2.812590390477000E-02
             2.847185252280000E-02     2.882205630882000E-02     2.917656760142000E-02     2.953543938292000E-02
             2.989872528733000E-02     3.026647960836000E-02     3.063875730755000E-02     3.101561402243000E-02
             3.139710607491000E-02     3.178329047963000E-02     3.217422495253000E-02     3.256996791944000E-02
             3.297057852485000E-02     3.337611664071000E-02     3.378664287539000E-02     3.420221858276000E-02
             3.462290587133000E-02     3.504876761354000E-02     3.547986745519000E-02     3.591626982489000E-02
             3.635803994373000E-02     3.680524383504000E-02     3.725794833421000E-02     3.771622109872000E-02
             3.818013061824000E-02     3.864974622484000E-02     3.912513810341000E-02     3.960637730208000E-02
             4.009353574290000E-02     4.058668623253000E-02     4.108590247319000E-02     4.159125907361000E-02
             4.210283156022000E-02     4.262069638841000E-02     4.314493095399000E-02     4.367561360472000E-02
             4.421282365206000E-02     4.475664138298000E-02     4.530714807199000E-02     4.586442599327000E-02
             4.642855843299000E-02     4.699962970172000E-02     4.757772514705000E-02     4.816293116636000E-02
             4.875533521970000E-02     4.935502584291000E-02     4.996209266077000E-02     5.057662640050000E-02
             5.119871890523000E-02     5.182846314776000E-02     5.246595324448000E-02     5.311128446939000E-02
             5.376455326836000E-02     5.442585727356000E-02     5.509529531803000E-02     5.577296745044000E-02
             5.645897495008000E-02     5.715342034196000E-02     5.785640741217000E-02     5.856804122334000E-02
             5.928842813039000E-02     6.001767579639000E-02     6.075589320869000E-02     6.150319069515000E-02
             6.225967994070000E-02     6.302547400397000E-02     6.380068733421999E-02     6.458543578843000E-02
             6.537983664862999E-02     6.618400863941000E-02     6.699807194567001E-02     6.782214823061000E-02
             6.865636065384000E-02     6.950083388988000E-02     7.035569414673000E-02     7.122106918474000E-02
             7.209708833571001E-02     7.298388252224000E-02     7.388158427726001E-02     7.479032776387000E-02
             7.571024879537000E-02     7.664148485555000E-02     7.758417511927000E-02     7.853846047323999E-02
             7.950448353705999E-02     8.048238868457000E-02     8.147232206539000E-02     8.247443162679000E-02
             8.348886713580000E-02     8.451578020157000E-02     8.555532429805000E-02     8.660765478691999E-02
             8.767292894079000E-02     8.875130596677000E-02     8.984294703016001E-02     9.094801527863000E-02
             9.206667586656000E-02     9.319909597971000E-02     9.434544486026000E-02     9.550589383205001E-02
             9.668061632618000E-02     9.786978790699000E-02     9.907358629825000E-02     1.002921914097000E-01
             1.015257853641000E-01     1.027745525240000E-01     1.040386795201000E-01     1.053183552782000E-01
             1.066137710481000E-01     1.079251204320000E-01     1.092525994133000E-01     1.105964063861000E-01
             1.119567421846000E-01     1.133338101135000E-01     1.147278159779000E-01     1.161389681144000E-01
             1.175674774222000E-01     1.190135573945000E-01     1.204774241505000E-01     1.219592964675000E-01
             1.234593958141000E-01     1.249779463826000E-01     1.265151751231000E-01     1.280713117771000E-01
             1.296465889120000E-01     1.312412419556000E-01     1.328555092316000E-01     1.344896319952000E-01
             1.361438544687000E-01     1.378184238787000E-01     1.395135904924000E-01     1.412296076555000E-01
             1.429667318296000E-01     1.447252226311000E-01     1.465053428695000E-01     1.483073585868000E-01
             1.501315390974000E-01     1.519781570283000E-01     1.538474883598000E-01     1.557398124666000E-01
             1.576554121599000E-01     1.595945737295000E-01     1.615575869864000E-01     1.635447453063000E-01
             1.655563456736000E-01     1.675926887253000E-01     1.696540787967000E-01     1.717408239659000E-01
             1.738532361007000E-01     1.759916309047000E-01     1.781563279648000E-01     1.803476507988000E-01
             1.825659269036000E-01     1.848114878045000E-01     1.870846691045000E-01     1.893858105345000E-01
             1.917152560041000E-01     1.940733536529000E-01     1.964604559029000E-01     1.988769195105000E-01
             2.013231056204000E-01     2.037993798196000E-01     2.063061121914000E-01     2.088436773713000E-01
             2.114124546030000E-01     2.140128277946000E-01     2.166451855765000E-01     2.193099213591000E-01
             2.220074333918000E-01     2.247381248225000E-01     2.275024037578000E-01     2.303006833240000E-01
             2.331333817289000E-01     2.360009223242000E-01     2.389037336688000E-01     2.418422495929000E-01
             2.448169092629000E-01     2.478281572468000E-01     2.508764435810000E-01     2.539622238370000E-01
             2.570859591902000E-01     2.602481164882000E-01     2.634491683210000E-01     2.666895930914000E-01
             2.699698750864000E-01     2.732905045500000E-01     2.766519777559000E-01     2.800547970823000E-01
             2.834994710865000E-01     2.869865145808000E-01     2.905164487102000E-01     2.940898010293000E-01
             2.977071055820000E-01     3.013689029806000E-01     3.050757404873000E-01     3.088281720953000E-01
             3.126267586120000E-01     3.164720677430000E-01     3.203646741762000E-01     3.243051596686000E-01
             3.282941131325000E-01     3.323321307240000E-01     3.364198159319000E-01     3.405577796679000E-01
             3.447466403578000E-01     3.489870240342000E-01     3.532795644298000E-01     3.576249030723000E-01
             3.620236893801000E-01     3.664765807595000E-01     3.709842427028000E-01     3.755473488881000E-01
             3.801665812794000E-01     3.848426302291000E-01     3.895761945809000E-01     3.943679817743000E-01
             3.992187079501000E-01     4.041290980579000E-01     4.090998859640000E-01     4.141318145614000E-01
             4.192256358805000E-01     4.243821112018000E-01     4.296020111696000E-01     4.348861159070000E-01
             4.402352151326000E-01     4.456501082788000E-01     4.511316046106000E-01     4.566805233473000E-01
             4.622976937845000E-01     4.679839554180000E-01     4.737401580697000E-01     4.795671620139000E-01
             4.854658381067000E-01     4.914370679154000E-01     4.974817438508000E-01     5.036007693001000E-01
             5.097950587625000E-01     5.160655379853000E-01     5.224131441024999E-01     5.288388257750000E-01
             5.353435433320000E-01     5.419282689150000E-01     5.485939866227000E-01     5.553416926581000E-01
             5.621723954778000E-01     5.690871159422000E-01     5.760868874682999E-01     5.831727561841000E-01
             5.903457810852000E-01     5.976070341925001E-01     6.049576007131000E-01     6.123985792019000E-01
             6.199310817261000E-01     6.275562340313000E-01     6.352751757099000E-01     6.430890603711000E-01
             6.509990558137000E-01     6.590063442002000E-01     6.671121222338000E-01     6.753176013373000E-01
             6.836240078338000E-01     6.920325831301000E-01     7.005445839026000E-01     7.091612822846000E-01
             7.178839660567000E-01     7.267139388392000E-01     7.356525202870000E-01     7.447010462865000E-01
             7.538608691558000E-01     7.631333578464000E-01     7.725198981479000E-01     7.820218928952000E-01
             7.916407621778000E-01     8.013779435525000E-01     8.112348922582000E-01     8.212130814330000E-01
             8.313140023346000E-01     8.415391645634001E-01     8.518900962875000E-01     8.623683444718000E-01
             8.729754751088000E-01     8.837130734527000E-01     8.945827442561000E-01     9.055861120105000E-01
             9.167248211882000E-01     9.280005364888000E-01     9.394149430876000E-01     9.509697468876001E-01
             9.626666747743000E-01     9.745074748741001E-01     9.864939168150000E-01     9.986277919918000E-01
             1.010910913833000E+00     1.023345118074000E+00     1.035932263026000E+00     1.048674229861000E+00
             1.061572922888000E+00     1.074630269840000E+00     1.087848222159000E+00     1.101228755291000E+00
             1.114773868982000E+00     1.128485587570000E+00     1.142365960297000E+00     1.156417061609000E+00
             1.170640991466000E+00     1.185039875662000E+00     1.199615866132000E+00     1.214371141286000E+00
             1.229307906323000E+00     1.244428393571000E+00     1.259734862812000E+00     1.275229601625000E+00
             1.290914925725000E+00     1.306793179311000E+00     1.322866735417000E+00     1.339137996262000E+00
             1.355609393616000E+00     1.372283389158000E+00     1.389162474844000E+00     1.406249173285000E+00
             1.423546038116000E+00     1.441055654385000E+00     1.458780638934000E+00     1.476723640793000E+00
             1.494887341575000E+00     1.513274455876000E+00     1.531887731684000E+00     1.550729950783000E+00
             1.569803929178000E+00     1.589112517507000E+00     1.608658601472000E+00     1.628445102270000E+00
             1.648474977028000E+00     1.668751219246000E+00     1.689276859242000E+00     1.710054964611000E+00
             1.731088640676000E+00     1.752381030956000E+00     1.773935317637000E+00     1.795754722044000E+00
             1.817842505125000E+00     1.840201967938000E+00     1.862836452143000E+00     1.885749340505000E+00
             1.908944057393000E+00     1.932424069299000E+00     1.956192885351000E+00     1.980254057841000E+00
             2.004611182753000E+00     2.029267900300000E+00     2.054227895474000E+00     2.079494898589000E+00
             2.105072685841000E+00     2.130965079877000E+00     2.157175950359000E+00     2.183709214549000E+00
             2.210568837888000E+00     2.237758834594000E+00     2.265283268259000E+00     2.293146252459000E+00
             2.321351951364000E+00     2.349904580366000E+00     2.378808406704000E+00     2.408067750107000E+00
             2.437686983433000E+00     2.467670533329000E+00     2.498022880889000E+00     2.528748562324000E+00
             2.559852169641000E+00     2.591338351327000E+00     2.623211813049000E+00     2.655477318349000E+00
             2.688139689365000E+00     2.721203807544000E+00     2.754674614377000E+00     2.788557112134000E+00
             2.822856364613000E+00     2.857577497898000E+00     2.892725701122000E+00     2.928306227246000E+00
             2.964324393841000E+00     3.000785583885000E+00     3.037695246567000E+00     3.075058898100000E+00
             3.112882122546000E+00     3.151170572654000E+00     3.189929970697000E+00     3.229166109337000E+00
             3.268884852482000E+00     3.309092136167000E+00     3.349793969442000E+00     3.390996435266000E+00
             3.432705691420000E+00     3.474927971425000E+00     3.517669585473000E+00     3.560936921374000E+00
             3.604736445507000E+00     3.649074703787000E+00     3.693958322644000E+00     3.739394010012000E+00
             3.785388556335000E+00     3.831948835578000E+00     3.879081806256000E+00     3.926794512473000E+00
             3.975094084976000E+00     4.023987742221000E+00     4.073482791451000E+00     4.123586629785000E+00
             4.174306745332000E+00     4.225650718299000E+00     4.277626222134000E+00     4.330241024667000E+00
             4.383502989270000E+00     4.437420076038000E+00     4.492000342973000E+00     4.547251947192000E+00
             4.603183146143000E+00     4.659802298840000E+00     4.717117867116000E+00     4.775138416881000E+00
             4.833872619409000E+00     4.893329252628000E+00     4.953517202435000E+00     5.014445464025000E+00
             5.076123143232000E+00     5.138559457894000E+00     5.201763739226000E+00     5.265745433219000E+00
             5.330514102047000E+00     5.396079425503000E+00     5.462451202436000E+00     5.529639352226000E+00
             5.597653916259000E+00     5.666505059429000E+00     5.736203071660000E+00     5.806758369441000E+00
             5.878181497385000E+00     5.950483129803000E+00     6.023674072300000E+00     6.097765263389000E+00
             6.172767776128000E+00     6.248692819775000E+00     6.325551741458000E+00     6.403356027878000E+00
             6.482117307021000E+00     6.561847349897000E+00     6.642558072301000E+00     6.724261536590000E+00
             6.806969953490000E+00     6.890695683918000E+00     6.975451240831000E+00     7.061249291093000E+00
             7.148102657373000E+00     7.236024320059000E+00     7.325027419196000E+00     7.415125256452000E+00
             7.506331297106000E+00     7.598659172060000E+00     7.692122679877000E+00     7.786735788839000E+00
             7.882512639042000E+00     7.979467544502000E+00     8.077614995299999E+00     8.176969659741999E+00
             8.277546386556001E+00     8.379360207111000E+00     8.482426337659000E+00     8.586760181612000E+00
             8.692377331846000E+00     8.799293573027001E+00     8.907524883976000E+00     9.017087440049000E+00
             9.127997615561000E+00     9.240271986232999E+00     9.353927331663000E+00     9.468980637843000E+00
             9.585449099688001E+00     9.703350123613999E+00     9.822701330135001E+00     9.943520556495001E+00
             1.006582585934000E+01     1.018963551741000E+01     1.031496803427000E+01     1.044184214110000E+01
             1.057027679943000E+01     1.070029120406000E+01     1.083190478587000E+01     1.096513721474000E+01
             1.110000840248000E+01     1.123653850583000E+01     1.137474792945000E+01     1.151465732899000E+01
             1.165628761413000E+01     1.179965995179000E+01     1.194479576919000E+01     1.209171675715000E+01
             1.224044487327000E+01     1.239100234521000E+01     1.254341167405000E+01     1.269769563765000E+01
             1.285387729399000E+01     1.301197998471000E+01     1.317202733852000E+01     1.333404327478000E+01
             1.349805200706000E+01     1.366407804675000E+01     1.383214620672000E+01     1.400228160507000E+01
             1.417450966881000E+01     1.434885613773000E+01     1.452534706823000E+01     1.470400883717000E+01
             1.488486814586000E+01     1.506795202406000E+01     1.525328783395000E+01     1.544090327431000E+01
             1.563082638459000E+01     1.582308554912000E+01     1.601770950137000E+01     1.621472732824000E+01
             1.641416847437000E+01     1.661606274661000E+01     1.682044031839000E+01     1.702733173431000E+01
             1.723676791464000E+01     1.744878015999000E+01     1.766340015596000E+01     1.788065997788000E+01
             1.810059209560000E+01     1.832322937838000E+01     1.854860509973000E+01     1.877675294246000E+01
             1.900770700365000E+01     1.924150179980000E+01     1.947817227194000E+01     1.971775379088000E+01
             1.996028216251000E+01     2.020579363311000E+01     2.045432489480000E+01     2.070591309100000E+01
             2.096059582202000E+01     2.121841115063000E+01     2.147939760778000E+01     2.174359419836000E+01
             2.201104040700000E+01     2.228177620401000E+01     2.255584205132000E+01     2.283327890855000E+01
             2.311412823912000E+01     2.339843201646000E+01     2.368623273027000E+01     2.397757339285000E+01
             2.427249754558000E+01     2.457104926539000E+01     2.487327317135000E+01     2.517921443136000E+01
             2.548891876887000E+01     2.580243246973000E+01     2.611980238910000E+01     2.644107595849000E+01
             2.676630119278000E+01     2.709552669745000E+01     2.742880167583000E+01     2.776617593644000E+01
             2.810769990046000E+01     2.845342460923000E+01     2.880340173193000E+01     2.915768357323000E+01
             2.951632308118000E+01     2.987937385508000E+01     3.024689015350000E+01     3.061892690238000E+01
             3.099553970329000E+01     3.137678484164000E+01     3.176271929519000E+01     3.215340074252000E+01
             3.254888757165000E+01     3.294923888878000E+01     3.335451452711000E+01     3.376477505580000E+01
             3.418008178898000E+01     3.460049679499000E+01     3.502608290557000E+01     3.545690372530000E+01
             3.589302364113000E+01     3.633450783191000E+01     3.678142227825000E+01     3.723383377227000E+01
             3.769180992767000E+01     3.815541918978000E+01     3.862473084581000E+01     3.909981503521000E+01
             3.958074276015000E+01     4.006758589610000E+01     4.056041720262000E+01     4.105931033421000E+01
             4.156433985132000E+01     4.207558123149000E+01     4.259311088064000E+01     4.311700614447000E+01
             4.364734532005000E+01     4.418420766749000E+01     4.472767342180000E+01     4.527782380489000E+01
             4.583474103768000E+01     4.639850835245000E+01     4.696921000518000E+01     4.754693128825000E+01
             4.813175854309000E+01     4.872377917317000E+01     4.932308165700000E+01     4.992975556138000E+01
             5.054389155479000E+01     5.116558142091000E+01     5.179491807239000E+01     5.243199556468000E+01
             5.307690911013000E+01     5.372975509218000E+01     5.439063107981000E+01     5.505963584210000E+01