<UPF version="2.0.1">
  <PP_INFO>
    local psp - psp6 format
    12.000     2.000   20210830  zatom,zion,pspd
    6  11  0  0     977 0  pspcode,pspxc,lmax,lloc,mmax,r2well
    0   0   0    rchrg,fchrg,qchrg
    5---- no use
    6---- no use
    7---- no use
    2.0000E+00  1    zion   lmax+1
    0.0000    0.0000    0.0000   0.0000
    0.0000    0.0000    0.0000
    0.0000    0.0000    0.0000
    0.0000    0.0000    0.0000
    0.0000    0.0000    0.0000
    0.0000    0.0000    0.0000
    0.0000    0.0000    0.0000
    0.0000    0.0000    0.0000
    0.0000    0.0000    0.0000
    0.0000    0.0000    0.0000
    md5 4e443d14b13fc63c987e6d51adfcf275 mg_lps.cpi
  </PP_INFO>
  <!--                               -->
  <!-- END OF HUMAN READABLE SECTION -->
  <!--                               -->
  <PP_HEADER
            generated="DFTpy"
            author="shaoxc"
            date="Wed Apr 17 11:12:33 2024"
            comment=""
            element="Mg"
            pseudo_type="NC"
            relativistic="nonrelativistic"
            is_ultrasoft="F"
            is_paw="F"
            is_coulomb="F"
            has_so="F"
            has_wfc="F"
            has_gipaw="F"
            paw_as_gipaw="F"
            core_correction="F"
            functional="pbe"
            z_valence="2.0"
            total_psenergy="0.0"
            wfc_cutoff="0.0"
            rho_cutoff="0.0"
            l_max="1"
            l_max_rho="0"
            l_local="-1"
            mesh_size="977"
            number_of_wfc="0"
            number_of_proj="1"/>
  <PP_MESH>
    <PP_R type="real" size="977" columns="4">
             5.208333333333000E-04     5.272395833333001E-04     5.337246302083000E-04     5.402894431598999E-04
             5.469350033108000E-04     5.536623038515000E-04     5.604723501889000E-04     5.673661600962000E-04
             5.743447638654000E-04     5.814092044609000E-04     5.885605376757999E-04     5.957998322892000E-04
             6.031281702264000E-04     6.105466467201000E-04     6.180563704748000E-04     6.256584638316000E-04
             6.333540629368000E-04     6.411443179109000E-04     6.490303930212000E-04     6.570134668553000E-04
             6.650947324977001E-04     6.732753977074000E-04     6.815566850992000E-04     6.899398323259000E-04
             6.984260922635000E-04     7.070167331984000E-04     7.157130390167000E-04     7.245163093965999E-04
             7.334278600022000E-04     7.424490226802000E-04     7.515811456592000E-04     7.608255937508000E-04
             7.701837485539000E-04     7.796570086610999E-04     7.892467898677000E-04     7.989545253830000E-04
             8.087816660452000E-04     8.187296805376000E-04     8.288000556082000E-04     8.389942962922000E-04
             8.493139261366000E-04     8.597604874281000E-04     8.703355414234000E-04     8.810406685829000E-04
             8.918774688065000E-04     9.028475616728000E-04     9.139525866814000E-04     9.251942034976000E-04
             9.365740922006000E-04     9.480939535347000E-04     9.597555091631000E-04     9.715605019259000E-04
             9.835106960995000E-04     9.956078776616000E-04     1.007853854557000E-03     1.020250456968000E-03
             1.032799537589000E-03     1.045502971901000E-03     1.058362658455000E-03     1.071380519154000E-03
             1.084558499540000E-03     1.097898569084000E-03     1.111402721484000E-03     1.125072974958000E-03
             1.138911372550000E-03     1.152919982433000E-03     1.167100898217000E-03     1.181456239264000E-03
             1.195988151007000E-03     1.210698805265000E-03     1.225590400570000E-03     1.240665162497000E-03
             1.255925343995000E-03     1.271373225726000E-03     1.287011116403000E-03     1.302841353135000E-03
             1.318866301778000E-03     1.335088357290000E-03     1.351509944085000E-03     1.368133516397000E-03
             1.384961558649000E-03     1.401996585820000E-03     1.419241143826000E-03     1.436697809895000E-03
             1.454369192957000E-03     1.472257934030000E-03     1.490366706618000E-03     1.508698217110000E-03
             1.527255205180000E-03     1.546040444204000E-03     1.565056741668000E-03     1.584306939590000E-03
             1.603793914947000E-03     1.623520580101000E-03     1.643489883236000E-03     1.663704808800000E-03
             1.684168377948000E-03     1.704883648997000E-03     1.725853717880000E-03     1.747081718610000E-03
             1.768570823749000E-03     1.790324244881000E-03     1.812345233093000E-03     1.834637079460000E-03
             1.857203115537000E-03     1.880046713858000E-03     1.903171288439000E-03     1.926580295286000E-03
             1.950277232918000E-03     1.974265642883000E-03     1.998549110291000E-03     2.023131264347000E-03
             2.048015778899000E-03     2.073206372979000E-03     2.098706811367000E-03     2.124520905147000E-03
             2.150652512280000E-03     2.177105538181000E-03     2.203883936301000E-03     2.230991708717000E-03
             2.258432906734000E-03     2.286211631487000E-03     2.314332034555000E-03     2.342798318580000E-03
             2.371614737898000E-03     2.400785599174000E-03     2.430315262044000E-03     2.460208139767000E-03
             2.490468699886000E-03     2.521101464895000E-03     2.552111012913000E-03     2.583501978372000E-03
             2.615279052706000E-03     2.647446985054000E-03     2.680010582971000E-03     2.712974713141000E-03
             2.746344302113000E-03     2.780124337029000E-03     2.814319866374000E-03     2.848936000731000E-03
             2.883977913539000E-03     2.919450841876000E-03     2.955360087231000E-03     2.991711016304000E-03
             3.028509061805000E-03     3.065759723265000E-03     3.103468567861000E-03     3.141641231246000E-03
             3.180283418390000E-03     3.219400904436000E-03     3.258999535561000E-03     3.299085229848000E-03
             3.339663978175000E-03     3.380741845107000E-03     3.422324969802000E-03     3.464419566930000E-03
             3.507031927603000E-03     3.550168420313000E-03     3.593835491883000E-03     3.638039668433000E-03
             3.682787556355000E-03     3.728085843298000E-03     3.773941299170000E-03     3.820360777150000E-03
             3.867351214709000E-03     3.914919634650000E-03     3.963073146156000E-03     4.011818945854000E-03
             4.061164318888000E-03     4.111116640010000E-03     4.161683374682000E-03     4.212872080191000E-03
             4.264690406777000E-03     4.317146098781000E-03     4.370246995796000E-03     4.424001033844000E-03
             4.478416246560000E-03     4.533500766393000E-03     4.589262825820000E-03     4.645710758577000E-03
             4.702853000908000E-03     4.760698092819000E-03     4.819254679361000E-03     4.878531511917000E-03
             4.938537449513000E-03     4.999281460142000E-03     5.060772622102000E-03     5.123020125354000E-03
             5.186033272896000E-03     5.249821482152000E-03     5.314394286383000E-03     5.379761336105000E-03
             5.445932400539000E-03     5.512917369066000E-03     5.580726252706000E-03     5.649369185614000E-03
             5.718856426597000E-03     5.789198360644000E-03     5.860405500480000E-03     5.932488488136000E-03
             6.005458096540000E-03     6.079325231127000E-03     6.154100931470000E-03     6.229796372927000E-03
             6.306422868314000E-03     6.383991869595000E-03     6.462514969591000E-03     6.542003903717000E-03
             6.622470551732000E-03     6.703926939519000E-03     6.786385240875000E-03     6.869857779337000E-03
             6.954357030023000E-03     7.039895621492000E-03     7.126486337637000E-03     7.214142119590000E-03
             7.302876067661000E-03     7.392701443293000E-03     7.483631671045000E-03     7.575680340599000E-03
             7.668861208789000E-03     7.763188201657000E-03     7.858675416537000E-03     7.955337124161001E-03
             8.053187770787999E-03     8.152241980368000E-03     8.252514556727000E-03     8.354020485775000E-03
             8.456774937749999E-03     8.560793269484000E-03     8.666091026699000E-03     8.772683946326999E-03
             8.880587958867000E-03     8.989819190761000E-03     9.100393966807001E-03     9.212328812599001E-03
             9.325640456994000E-03     9.440345834615000E-03     9.556462088381000E-03     9.674006572067999E-03
             9.792996852903999E-03     9.913450714195001E-03     1.003538615798000E-02     1.015882140772000E-02
             1.028377491104000E-02     1.041026534244000E-02     1.053831160616000E-02     1.066793283891000E-02
             1.079914841283000E-02     1.093197793831000E-02     1.106644126695000E-02     1.120255849453000E-02
             1.134034996401000E-02     1.147983626857000E-02     1.162103825468000E-02     1.176397702521000E-02
             1.190867394262000E-02     1.205515063211000E-02     1.220342898489000E-02     1.235353116140000E-02
             1.250547959469000E-02     1.265929699370000E-02     1.281500634672000E-02     1.297263092479000E-02
             1.313219428516000E-02     1.329372027487000E-02     1.345723303425000E-02     1.362275700057000E-02
             1.379031691168000E-02     1.395993780969000E-02     1.413164504475000E-02     1.430546427880000E-02
             1.448142148943000E-02     1.465954297375000E-02     1.483985535233000E-02     1.502238557316000E-02
             1.520716091571000E-02     1.539420899498000E-02     1.558355776562000E-02     1.577523552613000E-02
             1.596927092310000E-02     1.616569295546000E-02     1.636453097881000E-02     1.656581470985000E-02
             1.676957423078000E-02     1.697583999382000E-02     1.718464282574000E-02     1.739601393250000E-02
             1.760998490387000E-02     1.782658771819000E-02     1.804585474712000E-02     1.826781876051000E-02
             1.849251293126000E-02     1.871997084032000E-02     1.895022648166000E-02     1.918331426738000E-02
             1.941926903287000E-02     1.965812604197000E-02     1.989992099229000E-02     2.014469002050000E-02
             2.039246970775000E-02     2.064329708515000E-02     2.089720963930000E-02     2.115424531786000E-02
             2.141444253527000E-02     2.167784017846000E-02     2.194447761265000E-02     2.221439468729000E-02
             2.248763174194000E-02     2.276422961237000E-02     2.304422963660000E-02     2.332767366113000E-02
             2.361460404716000E-02     2.390506367694000E-02     2.419909596017000E-02     2.449674484048000E-02
             2.479805480201000E-02     2.510307087608000E-02     2.541183864786000E-02     2.572440426322000E-02
             2.604081443566000E-02     2.636111645322000E-02     2.668535818560000E-02     2.701358809128000E-02
             2.734585522480000E-02     2.768220924407000E-02     2.802270041777000E-02     2.836737963291000E-02
             2.871629840239000E-02     2.906950887274000E-02     2.942706383187000E-02     2.978901671701000E-02
             3.015542162263000E-02     3.052633330859000E-02     3.090180720828000E-02     3.128189943694000E-02
             3.166666680002000E-02     3.205616680166000E-02     3.245045765332000E-02     3.284959828245000E-02
             3.325364834133000E-02     3.366266821592000E-02     3.407671903498000E-02     3.449586267911000E-02
             3.492016179006000E-02     3.534967978008000E-02     3.578448084138000E-02     3.622462995573000E-02
             3.667019290418000E-02     3.712123627690000E-02     3.757782748311000E-02     3.804003476115000E-02
             3.850792718871000E-02     3.898157469313000E-02     3.946104806186000E-02     3.994641895302000E-02
             4.043775990614000E-02     4.093514435299000E-02     4.143864662853000E-02     4.194834198206000E-02
             4.246430658844000E-02     4.298661755948000E-02     4.351535295546000E-02     4.405059179681000E-02
             4.459241407591000E-02     4.514090076905000E-02     4.569613384851000E-02     4.625819629484000E-02
             4.682717210927000E-02     4.740314632621000E-02     4.798620502603000E-02     4.857643534785000E-02
             4.917392550262000E-02     4.977876478631000E-02     5.039104359318000E-02     5.101085342937000E-02
             5.163828692656000E-02     5.227343785575000E-02     5.291640114138000E-02     5.356727287542000E-02
             5.422615033179000E-02     5.489313198087000E-02     5.556831750423000E-02     5.625180780953000E-02
             5.694370504559000E-02     5.764411261765000E-02     5.835313520285000E-02     5.907087876584000E-02
             5.979745057466000E-02     6.053295921673000E-02     6.127751461510000E-02     6.203122804486000E-02
             6.279421214981000E-02     6.356658095926000E-02     6.434844990506000E-02     6.513993583889000E-02
             6.594115704971000E-02     6.675223328142001E-02     6.757328575078000E-02     6.840443716550999E-02
             6.924581174265000E-02     7.009753522708000E-02     7.095973491038000E-02     7.183253964977000E-02
             7.271607988747000E-02     7.361048767007999E-02     7.451589666842000E-02     7.543244219745000E-02
             7.636026123648000E-02     7.729949244968000E-02     7.825027620682000E-02     7.921275460416000E-02
             8.018707148579000E-02     8.117337246506000E-02     8.217180494638000E-02     8.318251814723000E-02
             8.420566312044001E-02     8.524139277682000E-02     8.628986190797000E-02     8.735122720944000E-02
             8.842564730412000E-02     8.951328276596000E-02     9.061429614398001E-02     9.172885198654999E-02
             9.285711686598000E-02     9.399925940344001E-02     9.515545029410000E-02     9.632586233272000E-02
             9.751067043941000E-02     9.871005168581000E-02     9.992418532154999E-02     1.011532528010000E-01
             1.023974378105000E-01     1.036569262955000E-01     1.049319064890000E-01     1.062225689388000E-01
             1.075291065367000E-01     1.088517145471000E-01     1.101905906360000E-01     1.115459349009000E-01
             1.129179499002000E-01     1.143068406839000E-01     1.157128148243000E-01     1.171360824467000E-01
             1.185768562608000E-01     1.200353515928000E-01     1.215117864174000E-01     1.230063813903000E-01
             1.245193598814000E-01     1.260509480079000E-01     1.276013746685000E-01     1.291708715769000E-01
             1.307596732973000E-01     1.323680172788000E-01     1.339961438914000E-01     1.356442964612000E-01
             1.373127213077000E-01     1.390016677798000E-01     1.407113882935000E-01     1.424421383695000E-01
             1.441941766714000E-01     1.459677650445000E-01     1.477631685545000E-01     1.495806555277000E-01
             1.514204975907000E-01     1.532829697111000E-01     1.551683502385000E-01     1.570769209465000E-01
             1.590089670741000E-01     1.609647773691000E-01     1.629446441308000E-01     1.649488632536000E-01
             1.669777342716000E-01     1.690315604031000E-01     1.711106485961000E-01     1.732153095738000E-01
             1.753458578816000E-01     1.775026119335000E-01     1.796858940603000E-01     1.818960305573000E-01
             1.841333517331000E-01     1.863981919594000E-01     1.886908897205000E-01     1.910117876641000E-01
             1.933612326524000E-01     1.957395758140000E-01     1.981471725965000E-01     2.005843828194000E-01
             2.030515707281000E-01     2.055491050481000E-01     2.080773590402000E-01     2.106367105563000E-01
             2.132275420962000E-01     2.158502408640000E-01     2.185051988266000E-01     2.211928127722000E-01
             2.239134843693000E-01     2.266676202270000E-01     2.294556319558000E-01     2.322779362289000E-01
             2.351349548445000E-01     2.380271147891000E-01     2.409548483010000E-01     2.439185929351000E-01
             2.469187916282000E-01     2.499558927652000E-01     2.530303502462000E-01     2.561426235542000E-01
             2.592931778240000E-01     2.624824839112000E-01     2.657110184633000E-01     2.689792639904000E-01
             2.722877089375000E-01     2.756368477574000E-01     2.790271809848000E-01     2.824592153109000E-01
             2.859334636593000E-01     2.894504452623000E-01     2.930106857390000E-01     2.966147171736000E-01
             3.002630781948000E-01     3.039563140566000E-01     3.076949767195000E-01     3.114796249332000E-01
             3.153108243199000E-01     3.191891474590000E-01     3.231151739727000E-01     3.270894906126000E-01
             3.311126913471000E-01     3.351853774507000E-01     3.393081575933000E-01     3.434816479317000E-01
             3.477064722013000E-01     3.519832618094000E-01     3.563126559296000E-01     3.606953015976000E-01
             3.651318538072000E-01     3.696229756090000E-01     3.741693382090000E-01     3.787716210690000E-01
             3.834305120081000E-01     3.881467073058000E-01     3.929209118057000E-01     3.977538390209000E-01
             4.026462112409000E-01     4.075987596391000E-01     4.126122243827000E-01     4.176873547426000E-01
             4.228249092060000E-01     4.280256555892000E-01     4.332903711529000E-01     4.386198427181000E-01
             4.440148667835000E-01     4.494762496450000E-01     4.550048075156000E-01     4.606013666481000E-01
             4.662667634578000E-01     4.720018446484000E-01     4.778074673375000E-01     4.836844991858000E-01
             4.896338185258000E-01     4.956563144936000E-01     5.017528871619000E-01     5.079244476740000E-01
             5.141719183804000E-01     5.204962329765001E-01     5.268983366421000E-01     5.333791861828000E-01
             5.399397501728000E-01     5.465810090999000E-01     5.533039555119000E-01     5.601095941647000E-01
             5.669989421729000E-01     5.739730291616000E-01     5.810328974203000E-01     5.881796020586000E-01
             5.954142111639000E-01     6.027378059612000E-01     6.101514809745000E-01     6.176563441905000E-01
             6.252535172241001E-01     6.329441354859000E-01     6.407293483524000E-01     6.486103193371000E-01
             6.565882262650000E-01     6.646642614481000E-01     6.728396318638999E-01     6.811155593358000E-01
             6.894932807156000E-01     6.979740480684000E-01     7.065591288597000E-01     7.152498061446000E-01
             7.240473787602000E-01     7.329531615190000E-01     7.419684854056000E-01     7.510946977761001E-01
             7.603331625588000E-01     7.696852604583000E-01     7.791523891619000E-01     7.887359635486000E-01
             7.984374159002000E-01     8.082581961158000E-01     8.181997719280000E-01     8.282636291227000E-01
             8.384512717610000E-01     8.487642224036001E-01     8.592040223392000E-01     8.697722318140000E-01
             8.804704302653000E-01     8.913002165575000E-01     9.022632092212000E-01     9.133610466946001E-01
             9.245953875689000E-01     9.359679108359999E-01     9.474803161392999E-01     9.591343240278000E-01
             9.709316762134000E-01     9.828741358308000E-01     9.949634877015000E-01     1.007201538600000E+00
             1.019590117525000E+00     1.032131075971000E+00     1.044826288205000E+00     1.057677651550000E+00
             1.070687086664000E+00     1.083856537830000E+00     1.097187973245000E+00     1.110683385316000E+00
             1.124344790956000E+00     1.138174231884000E+00     1.152173774936000E+00     1.166345512368000E+00
             1.180691562170000E+00     1.195214068385000E+00     1.209915201426000E+00     1.224797158404000E+00
             1.239862163452000E+00     1.255112468063000E+00     1.270550351420000E+00     1.286178120742000E+00
             1.301998111627000E+00     1.318012688400000E+00     1.334224244468000E+00     1.350635202675000E+00
             1.367248015667000E+00     1.384065166260000E+00     1.401089167805000E+00     1.418322564569000E+00
             1.435767932113000E+00     1.453427877678000E+00     1.471305040574000E+00     1.489402092573000E+00
             1.507721738312000E+00     1.526266715693000E+00     1.545039796296000E+00     1.564043785790000E+00
             1.583281524356000E+00     1.602755887105000E+00     1.622469784516000E+00     1.642426162866000E+00
             1.662628004669000E+00     1.683078329127000E+00     1.703780192575000E+00     1.724736688944000E+00
             1.745950950218000E+00     1.767426146905000E+00     1.789165488512000E+00     1.811172224021000E+00
             1.833449642376000E+00     1.856001072978000E+00     1.878829886175000E+00     1.901939493775000E+00
             1.925333349549000E+00     1.949014949748000E+00     1.972987833630000E+00     1.997255583984000E+00
             2.021821827667000E+00     2.046690236147000E+00     2.071864526052000E+00     2.097348459722000E+00
             2.123145845777000E+00     2.149260539680000E+00     2.175696444318000E+00     2.202457510583000E+00
             2.229547737963000E+00     2.256971175140000E+00     2.284731920594000E+00     2.312834123217000E+00
             2.341281982933000E+00     2.370079751323000E+00     2.399231732264000E+00     2.428742282571000E+00
             2.458615812647000E+00     2.488856787142000E+00     2.519469725624000E+00     2.550459203249000E+00
             2.581829851449000E+00     2.613586358622000E+00     2.645733470833000E+00     2.678275992525000E+00
             2.711218787233000E+00     2.744566778316000E+00     2.778324949689000E+00     2.812498346570000E+00
             2.847092076233000E+00     2.882111308770000E+00     2.917561277868000E+00     2.953447281586000E+00
             2.989774683150000E+00     3.026548911752000E+00     3.063775463367000E+00     3.101459901566000E+00
             3.139607858356000E+00     3.178225035013000E+00     3.217317202944000E+00     3.256890204540000E+00
             3.296949954056000E+00     3.337502438491000E+00     3.378553718484000E+00     3.420109929222000E+00
             3.462177281351000E+00     3.504762061912000E+00     3.547870635273000E+00     3.591509444087000E+00
             3.635685010249000E+00     3.680403935876000E+00     3.725672904287000E+00     3.771498681010000E+00
             3.817888114786000E+00     3.864848138598000E+00     3.912385770703000E+00     3.960508115682000E+00
             4.009222365505000E+00     4.058535800601000E+00     4.108455790948000E+00     4.158989797177000E+00
             4.210145371682000E+00     4.261930159754000E+00     4.314351900719000E+00     4.367418429098000E+00
             4.421137675776000E+00     4.475517669188000E+00     4.530566536519000E+00     4.586292504918000E+00
             4.642703902728000E+00     4.699809160732000E+00     4.757616813409000E+00     4.816135500214000E+00
             4.875373966866000E+00     4.935341066659000E+00     4.996045761779000E+00     5.057497124649000E+00
             5.119704339282000E+00     5.182676702655000E+00     5.246423626098000E+00     5.310954636699000E+00
             5.376279378730000E+00     5.442407615088000E+00     5.509349228754000E+00     5.577114224268000E+00
             5.645712729226000E+00     5.715154995796000E+00     5.785451402244000E+00     5.856612454492000E+00
             5.928648787682000E+00     6.001571167770000E+00     6.075390493134000E+00     6.150117796199000E+00
             6.225764245093000E+00     6.302341145307000E+00     6.379859941395000E+00     6.458332218674000E+00
             6.537769704963000E+00     6.618184272335000E+00     6.699587938884000E+00     6.781992870533000E+00
             6.865411382840000E+00     6.949855942849000E+00     7.035339170946000E+00     7.121873842749000E+00
             7.209472891014000E+00     7.298149407574000E+00     7.387916645287000E+00     7.478788020024000E+00
             7.570777112670000E+00     7.663897671156000E+00     7.758163612511000E+00     7.853589024945000E+00
             7.950188169952000E+00     8.047975484443000E+00     8.146965582901000E+00     8.247173259570999E+00
             8.348613490664000E+00     8.451301436599000E+00     8.555252444269000E+00     8.660482049334000E+00
             8.767005978540000E+00     8.874840152076001E+00     8.984000685947001E+00     9.094503894383999E+00
             9.206366292285001E+00     9.319604597680000E+00     9.434235734231001E+00     9.550276833763000E+00
             9.667745238818000E+00     9.786658505255000E+00     9.907034404870000E+00     1.002889092805000E+01
             1.015224628646000E+01     1.027711891579000E+01     1.040352747845000E+01     1.053149086644000E+01
             1.066102820410000E+01     1.079215885101000E+01     1.092490240487000E+01     1.105927870445000E+01
             1.119530783252000E+01     1.133301011886000E+01     1.147240614332000E+01     1.161351673888000E+01
             1.175636299477000E+01     1.190096625961000E+01     1.204734814460000E+01     1.219553052678000E+01
             1.234553555226000E+01     1.249738563955000E+01     1.265110348292000E+01     1.280671205576000E+01
             1.296423461404000E+01     1.312369469979000E+01     1.328511614460000E+01     1.344852307318000E+01
             1.361393990698000E+01     1.378139136784000E+01     1.395090248166000E+01     1.412249858219000E+01
             1.429620531475000E+01     1.447204864012000E+01     1.465005483839000E+01     1.483025051290000E+01
             1.501266259421000E+01     1.519731834412000E+01     1.538424535975000E+01     1.557347157768000E+01
             1.576502527808000E+01     1.595893508900000E+01     1.615522999060000E+01     1.635393931948000E+01
             1.655509277311000E+01     1.675872041422000E+01     1.696485267532000E+01     1.717352036322000E+01
             1.738475466369000E+01     1.759858714605000E+01     1.781504976795000E+01     1.803417488010000E+01
             1.825599523112000E+01     1.848054397247000E+01     1.870785466333000E+01     1.893796127569000E+01
             1.917089819938000E+01     1.940670024723000E+01     1.964540266027000E+01     1.988704111299000E+01
             2.013165171868000E+01     2.037927103482000E+01     2.062993606855000E+01     2.088368428219000E+01
             2.114055359886000E+01     2.140058240813000E+01     2.166380957175000E+01     2.193027442948000E+01
             2.220001680496000E+01     2.247307701167000E+01     2.274949585891000E+01     2.302931465797000E+01
             2.331257522827000E+01     2.359931990357000E+01     2.388959153839000E+01     2.418343351431000E+01
             2.448088974654000E+01     2.478200469042000E+01     2.508682334811000E+01     2.539539127529000E+01
             2.570775458798000E+01     2.602395996941000E+01     2.634405467703000E+01     2.666808654956000E+01
             2.699610401412000E+01     2.732815609350000E+01     2.766429241345000E+01     2.800456321013000E+01
             2.834901933762000E+01     2.869771227547000E+01     2.905069413646000E+01     2.940801767433000E+01
             2.976973629173000E+01     3.013590404812000E+01     3.050657566791000E+01     3.088180654862000E+01
             3.126165276917000E+01     3.164617109823000E+01     3.203541900274000E+01     3.242945465648000E+01
             3.282833694875000E+01     3.323212549322000E+01     3.364088063678000E+01     3.405466346862000E+01
             3.447353582928000E+01     3.489756031998000E+01     3.532680031192000E+01     3.576131995575000E+01
             3.620118419121000E+01     3.664645875676000E+01     3.709721019947000E+01     3.755350588492000E+01
             3.801541400731000E+01     3.848300359960000E+01     3.895634454387000E+01     3.943550758176000E+01
             3.992056432502000E+01     4.041158726622000E+01     4.090864978959000E+01     4.141182618200000E+01
             4.192119164404000E+01     4.243682230126000E+01     4.295879521557000E+01     4.348718839672000E+01
             4.402208081400000E+01     4.456355240801000E+01     4.511168410263000E+01     4.566655781709000E+01
             4.622825647824000E+01     4.679686403293000E+01     4.737246546053000E+01     4.795514678569000E+01
             4.854499509116000E+01     4.914209853078000E+01     4.974654634271000E+01     5.035842886272000E+01
             5.097783753774000E+01     5.160486493945000E+01     5.223960477820000E+01     5.288215191698000E+01
             5.353260238556000E+01     5.419105339490000E+01     5.485760335166000E+01     5.553235187288000E+01
             5.621539980092000E+01     5.690684921847000E+01     5.760680346386000E+01     5.831536714646000E+01
             5.903264616236000E+01     5.975874771016000E+01     6.049378030699000E+01     6.123785380477000E+01
             6.199107940657000E+01     6.275356968327000E+01     6.352543859037000E+01     6.430680148504000E+01
             6.509777514330000E+01     6.589847777756000E+01     6.670902905423000E+01     6.752955011160000E+01
             6.836016357797000E+01     6.920099358998000E+01     7.005216581113000E+01     7.091380745060999E+01
             7.178604728225000E+01     7.266901566382001E+01     7.356284455649001E+01     7.446766754454001E+01
             7.538361985533000E+01     7.631083837955001E+01     7.724946169162000E+01     7.819963007043000E+01
             7.916148552030000E+01
    </PP_R>
    <PP_RAB type="real" size="977" columns="4">
             6.367171678420989E-06     6.445487890065572E-06     6.524767391113384E-06     6.605022030024540E-06
             6.686263800994250E-06     6.768504845746199E-06     6.851757455349203E-06     6.936034072049710E-06
             7.021347291136127E-06     7.107709862816557E-06     7.195134694129578E-06     7.283634850867222E-06
             7.373223559533413E-06     7.463914209314638E-06     7.555720354089731E-06     7.648655714444546E-06
             7.742734179733084E-06     7.837969810143526E-06     7.934376838808241E-06     8.031969673924840E-06
             8.130762900915091E-06     8.230771284596080E-06     8.332009771396599E-06     8.434493491584532E-06