<UPF version="2.0.1">
  <PP_INFO>
    local psp - psp6 format
    25.000    15.000   20210830  zatom,zion,pspd
    6  11  0  0    1037 0  pspcode,pspxc,lmax,lloc,mmax,r2well
    0   0   0    rchrg,fchrg,qchrg
    5---- no use
    6---- no use
    7---- no use
    1.5000E+01  1    zion   lmax+1
    0.0000    0.0000    0.0000   0.0000
    0.0000    0.0000    0.0000
    0.0000    0.0000    0.0000
    0.0000    0.0000    0.0000
    0.0000    0.0000    0.0000
    0.0000    0.0000    0.0000
    0.0000    0.0000    0.0000
    0.0000    0.0000    0.0000
    0.0000    0.0000    0.0000
    0.0000    0.0000    0.0000
    md5 bf32a17236ab6500c077d1cc75e943fd mn_lps_fitmag.cpi
  </PP_INFO>
  <!--                               -->
  <!-- END OF HUMAN READABLE SECTION -->
  <!--                               -->
  <PP_HEADER
            generated="DFTpy"
            author="shaoxc"
            date="Wed Apr 17 11:12:40 2024"
            comment=""
            element="Mn"
            pseudo_type="NC"
            relativistic="nonrelativistic"
            is_ultrasoft="F"
            is_paw="F"
            is_coulomb="F"
            has_so="F"
            has_wfc="F"
            has_gipaw="F"
            paw_as_gipaw="F"
            core_correction="F"
            functional="pbe"
            z_valence="15.0"
            total_psenergy="0.0"
            wfc_cutoff="0.0"
            rho_cutoff="0.0"
            l_max="1"
            l_max_rho="0"
            l_local="-1"
            mesh_size="1037"
            number_of_wfc="0"
            number_of_proj="1"/>
  <PP_MESH>
    <PP_R type="real" size="1037" columns="4">
             2.500000000000000E-04     2.530750000000000E-04     2.561878225000000E-04     2.593389327167000E-04
             2.625288015892000E-04     2.657579058487000E-04     2.690267280907000E-04     2.723357568462000E-04
             2.756854866554000E-04     2.790764181412000E-04     2.825090580844000E-04     2.859839194988000E-04
             2.895015217086000E-04     2.930623904257000E-04     2.966670578279000E-04     3.003160626392000E-04
             3.040099502096000E-04     3.077492725972000E-04     3.115345886502000E-04     3.153664640906000E-04
             3.192454715989000E-04     3.231721908995000E-04     3.271472088476000E-04     3.311711195164000E-04
             3.352445242865000E-04     3.393680319352000E-04     3.435422587280000E-04     3.477678285104000E-04
             3.520453728011000E-04     3.563755308865000E-04     3.607589499164000E-04     3.651962850004000E-04
             3.696881993059000E-04     3.742353641573000E-04     3.788384591365000E-04     3.834981721839000E-04
             3.882151997017000E-04     3.929902466581000E-04     3.978240266919000E-04     4.027172622202000E-04
             4.076706845456000E-04     4.126850339655000E-04     4.177610598832000E-04     4.228995209198000E-04
             4.281011850271000E-04     4.333668296030000E-04     4.386972416071000E-04     4.440932176788000E-04
             4.495555642563000E-04     4.550850976966000E-04     4.606826443983000E-04     4.663490409244000E-04
             4.720851341278000E-04     4.778917812776000E-04     4.837698501873000E-04     4.897202193446000E-04
             4.957437780425000E-04     5.018414265124000E-04     5.080140760585000E-04     5.142626491941000E-04
             5.205880797791000E-04     5.269913131604000E-04     5.334733063123000E-04     5.400350279799000E-04
             5.466774588241000E-04     5.534015915676001E-04     5.602084311439000E-04     5.670989948470000E-04
             5.740743124836000E-04     5.811354265271000E-04     5.882833922734000E-04     5.955192779984000E-04
             6.028441651178000E-04     6.102591483487000E-04     6.177653358734000E-04     6.253638495047000E-04
             6.330558248536000E-04     6.408424114993000E-04     6.487247731607000E-04     6.567040878706000E-04
             6.647815481514000E-04     6.729583611937000E-04     6.812357490363000E-04     6.896149487495000E-04
             6.980972126191000E-04     7.066838083343000E-04     7.153760191768000E-04     7.241751442127000E-04
             7.330824984865000E-04     7.420994132179000E-04     7.512272360005000E-04     7.604673310033000E-04
             7.698210791746000E-04     7.792898784485000E-04     7.888751439534000E-04     7.985783082240000E-04
             8.084008214152000E-04     8.183441515186000E-04     8.284097845823000E-04     8.385992249326000E-04
             8.489139953993000E-04     8.593556375427000E-04     8.699257118845000E-04     8.806257981407000E-04
             8.914574954578000E-04     9.024224226519000E-04     9.135222184505000E-04     9.247585417375000E-04
             9.361330718009000E-04     9.476475085840000E-04     9.593035729396000E-04     9.711030068867000E-04
             9.830475738714999E-04     9.951390590301000E-04     1.007379269456000E-03     1.019770034470000E-03
             1.032313205894000E-03     1.045010658327000E-03     1.057864289424000E-03     1.070876020184000E-03
             1.084047795232000E-03     1.097381583114000E-03     1.110879376586000E-03     1.124543192918000E-03
             1.138375074191000E-03     1.152377087604000E-03     1.166551325781000E-03     1.180899907088000E-03
             1.195424975946000E-03     1.210128703150000E-03     1.225013286198000E-03     1.240080949619000E-03
             1.255333945299000E-03     1.270774552826000E-03     1.286405079826000E-03     1.302227862308000E-03
             1.318245265014000E-03     1.334459681774000E-03     1.350873535860000E-03     1.367489280351000E-03
             1.384309398499000E-03     1.401336404101000E-03     1.418572841871000E-03     1.436021287826000E-03
             1.453684349666000E-03     1.471564667167000E-03     1.489664912573000E-03     1.507987790998000E-03
             1.526536040827000E-03     1.545312434129000E-03     1.564319777069000E-03     1.583560910327000E-03
             1.603038709524000E-03     1.622756085651000E-03     1.642715985505000E-03     1.662921392127000E-03
             1.683375325250000E-03     1.704080841750000E-03     1.725041036104000E-03     1.746259040848000E-03
             1.767738027050000E-03     1.789481204783000E-03     1.811491823602000E-03     1.833773173032000E-03
             1.856328583060000E-03     1.879161424632000E-03     1.902275110155000E-03     1.925673094010000E-03
             1.949358873066000E-03     1.973335987205000E-03     1.997608019848000E-03     2.022178598492000E-03
             2.047051395253000E-03     2.072230127415000E-03     2.097718557982000E-03     2.123520496245000E-03
             2.149639798349000E-03     2.176080367869000E-03     2.202846156393000E-03     2.229941164117000E-03
             2.257369440436000E-03     2.285135084553000E-03     2.313242246093000E-03     2.341695125720000E-03
             2.370497975766000E-03     2.399655100868000E-03     2.429170858609000E-03     2.459049660170000E-03
             2.489295970990000E-03     2.519914311433000E-03     2.550909257464000E-03     2.582285441331000E-03
             2.614047552259000E-03     2.646200337152000E-03     2.678748601299000E-03     2.711697209095000E-03
             2.745051084766000E-03     2.778815213109000E-03     2.812994640230000E-03     2.847594474305000E-03
             2.882619886339000E-03     2.918076110941000E-03     2.953968447106000E-03     2.990302259005000E-03
             3.027082976791000E-03     3.064316097405000E-03     3.102007185403000E-03     3.140161873784000E-03
             3.178785864832000E-03     3.217884930969000E-03     3.257464915620000E-03     3.297531734082000E-03
             3.338091374411000E-03     3.379149898316000E-03     3.420713442066000E-03     3.462788217403000E-03
             3.505380512477000E-03     3.548496692781000E-03     3.592143202102000E-03     3.636326563488000E-03
             3.681053380219000E-03     3.726330336795000E-03     3.772164199938000E-03     3.818561819597000E-03
             3.865530129978000E-03     3.913076150577000E-03     3.961206987229000E-03     4.009929833172000E-03
             4.059251970120000E-03     4.109180769352000E-03     4.159723692815000E-03     4.210888294237000E-03
             4.262682220256000E-03     4.315113211565000E-03     4.368189104068000E-03     4.421917830048000E-03
             4.476307419357000E-03     4.531366000615000E-03     4.587101802423000E-03     4.643523154593000E-03
             4.700638489394000E-03     4.758456342814000E-03     4.816985355830000E-03     4.876234275707000E-03
             4.936211957298000E-03     4.996927364373000E-03     5.058389570955000E-03     5.120607762678000E-03
             5.183591238158000E-03     5.247349410388000E-03     5.311891808136000E-03     5.377228077376000E-03
             5.443367982727000E-03     5.510321408915000E-03     5.578098362245000E-03     5.646708972100000E-03
             5.716163492457000E-03     5.786472303414000E-03     5.857645912746000E-03     5.929694957473000E-03
             6.002630205450000E-03     6.076462556977000E-03     6.151203046428000E-03     6.226862843899000E-03
             6.303453256879000E-03     6.380985731938000E-03     6.459471856441000E-03     6.538923360275000E-03
             6.619352117607000E-03     6.700770148653000E-03     6.783189621482000E-03     6.866622853826000E-03
             6.951082314928000E-03     7.036580627402000E-03     7.123130569119000E-03     7.210745075119000E-03
             7.299437239543000E-03     7.389220317589000E-03     7.480107727496000E-03     7.572113052544000E-03
             7.665250043090000E-03     7.759532618620000E-03     7.854974869828999E-03     7.951591060728000E-03
             8.049395630775001E-03     8.148403197033000E-03     8.248628556357000E-03     8.350086687600001E-03
             8.452792753857999E-03     8.556762104730000E-03     8.662010278618000E-03     8.768553005044999E-03
             8.876406207007000E-03     8.985586003354000E-03     9.096108711195001E-03     9.207990848342000E-03
             9.321249135776999E-03     9.435900500147001E-03     9.551962076299001E-03     9.669451209836999E-03
             9.788385459718000E-03     9.908782600873000E-03     1.003066062686000E-02     1.015403775257000E-02
             1.027893241693000E-02     1.040536328566000E-02     1.053334925407000E-02     1.066290944990000E-02
             1.079406323613000E-02     1.092683021394000E-02     1.106123022557000E-02     1.119728335734000E-02
             1.133500994264000E-02     1.147443056493000E-02     1.161556606088000E-02     1.175843752343000E-02
             1.190306630497000E-02     1.204947402052000E-02     1.219768255097000E-02     1.234771404635000E-02
             1.249959092912000E-02     1.265333589755000E-02     1.280897192909000E-02     1.296652228381000E-02
             1.312601050790000E-02     1.328746043715000E-02     1.345089620053000E-02     1.361634222379000E-02
             1.378382323315000E-02     1.395336425891000E-02     1.412499063930000E-02     1.429872802416000E-02
             1.447460237886000E-02     1.465263998812000E-02     1.483286745998000E-02     1.501531172973000E-02
             1.520000006401000E-02     1.538696006480000E-02     1.557621967359000E-02     1.576780717558000E-02
             1.596175120384000E-02     1.615808074364000E-02     1.635682513679000E-02     1.655801408597000E-02
             1.676167765923000E-02     1.696784629444000E-02     1.717655080386000E-02     1.738782237875000E-02
             1.760169259401000E-02     1.781819341291000E-02     1.803735719189000E-02     1.825921668535000E-02
             1.848380505058000E-02     1.871115585271000E-02     1.894130306969000E-02     1.917428109745000E-02
             1.941012475495000E-02     1.964886928943000E-02     1.989055038169000E-02     2.013520415139000E-02
             2.038286716245000E-02     2.063357642855000E-02     2.088736941862000E-02     2.114428406247000E-02
             2.140435875644000E-02     2.166763236914000E-02     2.193414424728000E-02     2.220393422153000E-02
             2.247704261245000E-02     2.275351023658000E-02     2.303337841249000E-02     2.331668896697000E-02
             2.360348424126000E-02     2.389380709743000E-02     2.418770092473000E-02     2.448520964610000E-02
             2.478637772475000E-02     2.509125017076000E-02     2.539987254786000E-02     2.571229098020000E-02
             2.602855215926000E-02     2.634870335081000E-02     2.667279240203000E-02     2.700086774857000E-02
             2.733297842188000E-02     2.766917405647000E-02     2.800950489737000E-02     2.835402180760000E-02
             2.870277627584000E-02     2.905582042403000E-02     2.941320701525000E-02     2.977498946153000E-02
             3.014122183191000E-02     3.051195886044000E-02     3.088725595443000E-02     3.126716920267000E-02
             3.165175538386000E-02     3.204107197508000E-02     3.243517716037000E-02     3.283412983945000E-02
             3.323798963647000E-02     3.364681690900000E-02     3.406067275698000E-02     3.447961903189000E-02
             3.490371834598000E-02     3.533303408164000E-02     3.576763040084000E-02     3.620757225477000E-02
             3.665292539351000E-02     3.710375637585000E-02     3.756013257927000E-02     3.802212221000000E-02
             3.848979431318000E-02     3.896321878323000E-02     3.944246637427000E-02     3.992760871067000E-02
             4.041871829781000E-02     4.091586853287000E-02     4.141913371583000E-02     4.192858906053000E-02
             4.244431070598000E-02     4.296637572766000E-02     4.349486214911000E-02     4.402984895354000E-02
             4.457141609567000E-02     4.511964451365000E-02     4.567461614117000E-02     4.623641391970000E-02
             4.680512181092000E-02     4.738082480919000E-02     4.796360895434000E-02     4.855356134448000E-02
             4.915077014902000E-02     4.975532462185000E-02     5.036731511470000E-02     5.098683309061000E-02
             5.161397113763000E-02     5.224882298262000E-02     5.289148350531000E-02     5.354204875242000E-02
             5.420061595208000E-02     5.486728352829000E-02     5.554215111568000E-02     5.622531957441000E-02
             5.691689100517000E-02     5.761696876454000E-02     5.832565748034000E-02     5.904306306735000E-02
             5.976929274307000E-02     6.050445504381000E-02     6.124865984085000E-02     6.200201835690000E-02
             6.276464318269000E-02     6.353664829383000E-02     6.431814906784999E-02     6.510926230138001E-02
             6.591010622769000E-02     6.672080053429000E-02     6.754146638086000E-02     6.837222641735000E-02
             6.921320480228001E-02     7.006452722135000E-02     7.092632090617000E-02     7.179871465331999E-02
             7.268183884355001E-02     7.357582546133000E-02     7.448080811450000E-02     7.539692205431001E-02
             7.632430419558001E-02     7.726309313717999E-02     7.821342918276999E-02     7.917545436171999E-02
             8.014931245037001E-02     8.113514899351000E-02     8.213311132613001E-02     8.314334859543999E-02
             8.416601178315999E-02     8.520125372810000E-02     8.624922914895000E-02     8.731009466748001E-02
             8.838400883189000E-02     8.947113214053000E-02     9.057162706584999E-02     9.168565807876000E-02
             9.281339167313001E-02     9.395499639071000E-02     9.511064284632000E-02     9.628050375333000E-02
             9.746475394949000E-02     9.866357042307000E-02     9.987713233928000E-02     1.011056210670000E-01
             1.023492202062000E-01     1.036081156147000E-01     1.048824954368000E-01     1.061725501306000E-01
             1.074784724972000E-01     1.088004577090000E-01     1.101387033388000E-01     1.114934093899000E-01
             1.128647783253000E-01     1.142530150987000E-01     1.156583271845000E-01     1.170809246088000E-01
             1.185210199815000E-01     1.199788285273000E-01     1.214545681182000E-01     1.229484593060000E-01
             1.244607253555000E-01     1.259915922774000E-01     1.275412888624000E-01     1.291100467154000E-01
             1.306981002900000E-01     1.323056869236000E-01     1.339330468727000E-01     1.355804233492000E-01
             1.372480625565000E-01     1.389362137259000E-01     1.406451291547000E-01     1.423750642433000E-01
             1.441262775335000E-01     1.458990307472000E-01     1.476935888254000E-01     1.495102199679000E-01
             1.513491956735000E-01     1.532107907803000E-01     1.550952835069000E-01     1.570029554940000E-01
             1.589340918466000E-01     1.608889811763000E-01     1.628679156448000E-01     1.648711910072000E-01
             1.668991066566000E-01     1.689519656685000E-01     1.710300748462000E-01     1.731337447668000E-01
             1.752632898275000E-01     1.774190282923000E-01     1.796012823403000E-01     1.818103781131000E-01
             1.840466457639000E-01     1.863104195068000E-01     1.886020376667000E-01     1.909218427300000E-01
             1.932701813956000E-01     1.956474046268000E-01     1.980538677037000E-01     2.004899302765000E-01
             2.029559564189000E-01     2.054523146828000E-01     2.079793781534000E-01     2.105375245047000E-01
             2.131271360561000E-01     2.157485998296000E-01     2.184023076075000E-01     2.210886559911000E-01
             2.238080464598000E-01     2.265608854312000E-01     2.293475843220000E-01     2.321685596092000E-01
             2.350242328924000E-01     2.379150309569000E-01     2.408413858377000E-01     2.438037348835000E-01
             2.468025208226000E-01     2.498381918287000E-01     2.529112015882000E-01     2.560220093677000E-01
             2.591710800829000E-01     2.623588843680000E-01     2.655858986457000E-01     2.688526051990000E-01
             2.721594922430000E-01     2.755070539976000E-01     2.788957907617000E-01     2.823262089881000E-01
             2.857988213587000E-01     2.893141468614000E-01     2.928727108678000E-01     2.964750452115000E-01
             3.001216882676000E-01     3.038131850332000E-01     3.075500872092000E-01     3.113329532818000E-01
             3.151623486072000E-01     3.190388454951000E-01     3.229630232946000E-01     3.269354684812000E-01
             3.309567747435000E-01     3.350275430728000E-01     3.391483818526000E-01     3.433199069494000E-01
             3.475427418049000E-01     3.518175175291000E-01     3.561448729947000E-01     3.605254549325000E-01
             3.649599180282000E-01     3.694489250200000E-01     3.739931467977000E-01     3.785932625033000E-01
             3.832499596321000E-01     3.879639341356000E-01     3.927358905254000E-01     3.975665419789000E-01
             4.024566104453000E-01     4.074068267537000E-01     4.124179307228000E-01     4.174906712707000E-01
             4.226258065273000E-01     4.278241039476000E-01     4.330863404262000E-01     4.384133024134000E-01
             4.438057860331000E-01     4.492645972013000E-01     4.547905517469000E-01     4.603844755334000E-01
             4.660472045824000E-01     4.717795851988000E-01     4.775824740967000E-01     4.834567385281000E-01
             4.894032564120000E-01     4.954229164659000E-01     5.015166183384000E-01     5.076852727440000E-01
             5.139298015987001E-01     5.202511381584000E-01     5.266502271577000E-01     5.331280249518000E-01
             5.396854996587001E-01     5.463236313045000E-01     5.530434119695000E-01     5.598458459368000E-01
             5.667319498418000E-01     5.737027528248000E-01     5.807592966846000E-01     5.879026360338000E-01
             5.951338384570000E-01     6.024539846700000E-01     6.098641686815000E-01     6.173654979563000E-01
             6.249590935811000E-01     6.326460904322000E-01     6.404276373445000E-01     6.483048972838000E-01
             6.562790475204000E-01     6.643512798049001E-01     6.725228005465000E-01     6.807948309932000E-01
             6.891686074145000E-01     6.976453812857000E-01     7.062264194755000E-01     7.149130044350001E-01
             7.237064343896000E-01     7.326080235326000E-01     7.416191022220000E-01     7.507410171793000E-01
             7.599751316906000E-01     7.693228258104000E-01     7.787854965679000E-01     7.883645581756999E-01
             7.980614422412000E-01     8.078775979808001E-01     8.178144924360000E-01     8.278736106929000E-01
             8.380564561045000E-01     8.483645505146000E-01     8.587994344859000E-01     8.693626675301001E-01
             8.800558283407000E-01     8.908805150293000E-01     9.018383453641000E-01     9.129309570121000E-01
             9.241600077834000E-01     9.355271758790999E-01     9.470341601424000E-01     9.586826803122001E-01
             9.704744772800000E-01     9.824113133505000E-01     9.944949725048000E-01     1.006727260667000E+00
             1.019110005973000E+00     1.031645059046000E+00     1.044334293272000E+00     1.057179605080000E+00
             1.070182914222000E+00     1.083346164067000E+00     1.096671321885000E+00     1.110160379144000E+00
             1.123815351808000E+00     1.137638280635000E+00     1.151631231487000E+00     1.165796295634000E+00
             1.180135590070000E+00     1.194651257828000E+00     1.209345468300000E+00     1.224220417560000E+00
             1.239278328696000E+00     1.254521452139000E+00     1.269952066000000E+00     1.285572476412000E+00
             1.301385017872000E+00     1.317392053592000E+00     1.333595975851000E+00     1.349999206354000E+00
             1.366604196592000E+00     1.383413428210000E+00     1.400429413377000E+00     1.417654695161000E+00
             1.435091847912000E+00     1.452743477641000E+00     1.470612222416000E+00     1.488700752752000E+00
             1.507011772011000E+00     1.525548016806000E+00     1.544312257413000E+00     1.563307298179000E+00
             1.582535977947000E+00     1.602001170476000E+00     1.621705784873000E+00     1.641652766026000E+00
             1.661845095049000E+00     1.682285789718000E+00     1.702977904931000E+00     1.723924533162000E+00
             1.745128804920000E+00     1.766593889220000E+00     1.788322994058000E+00     1.810319366885000E+00
             1.832586295097000E+00     1.855127106527000E+00     1.877945169937000E+00     1.901043895527000E+00
             1.924426735442000E+00     1.948097184288000E+00     1.972058779655000E+00     1.996315102645000E+00
             2.020869778407000E+00     2.045726476682000E+00     2.070888912345000E+00     2.096360845967000E+00
             2.122146084372000E+00     2.148248481210000E+00     2.174671937529000E+00     2.201420402361000E+00
             2.228497873310000E+00     2.255908397151000E+00     2.283656070436000E+00     2.311745040103000E+00
             2.340179504096000E+00     2.368963711996000E+00     2.398101965654000E+00     2.427598619831000E+00
             2.457458082855000E+00     2.487684817274000E+00     2.518283340527000E+00     2.549258225615000E+00
             2.580614101790000E+00     2.612355655242000E+00     2.644487629802000E+00     2.677014827649000E+00
             2.709942110029000E+00     2.743274397982000E+00     2.777016673077000E+00     2.811173978156000E+00
             2.845751418087000E+00     2.880754160530000E+00     2.916187436704000E+00     2.952056542176000E+00
             2.988366837645000E+00     3.025123749747000E+00     3.062332771869000E+00     3.099999464963000E+00
             3.138129458382000E+00     3.176728450720000E+00     3.215802210664000E+00     3.255356577856000E+00
             3.295397463763000E+00     3.335930852567000E+00     3.376962802054000E+00     3.418499444519000E+00
             3.460546987687000E+00     3.503111715635000E+00     3.546199989738000E+00     3.589818249612000E+00
             3.633973014082000E+00     3.678670882155000E+00     3.723918534006000E+00     3.769722731974000E+00
             3.816090321577000E+00     3.863028232532000E+00     3.910543479793000E+00     3.958643164594000E+00
             4.007334475519000E+00     4.056624689567000E+00     4.106521173249000E+00     4.157031383680000E+00
             4.208162869699000E+00     4.259923272997000E+00     4.312320329254000E+00     4.365361869304000E+00
             4.419055820297000E+00     4.473410206886000E+00     4.528433152431000E+00     4.584132880206000E+00
             4.640517714633000E+00     4.697596082522000E+00     4.755376514338000E+00     4.813867645464000E+00
             4.873078217503000E+00     4.933017079578000E+00     4.993693189657000E+00     5.055115615890000E+00
             5.117293537965000E+00     5.180236248482000E+00     5.243953154339000E+00     5.308453778137000E+00
             5.373747759608000E+00     5.439844857051000E+00     5.506754948793000E+00     5.574488034663000E+00
             5.643054237490000E+00     5.712463804611000E+00     5.782727109408000E+00     5.853854652853000E+00
             5.925857065083000E+00     5.998745106984000E+00     6.072529671800000E+00     6.147221786763000E+00
             6.222832614740000E+00     6.299373455901000E+00     6.376855749409000E+00     6.455291075127000E+00
             6.534691155351000E+00     6.615067856561000E+00     6.696433191197000E+00     6.778799319449000E+00
             6.862178551078000E+00     6.946583347256000E+00     7.032026322428000E+00     7.118520246194000E+00
             7.206078045222000E+00     7.294712805178000E+00     7.384437772682000E+00     7.475266357286000E+00
             7.567212133480000E+00     7.660288842722000E+00     7.754510395488000E+00     7.849890873352000E+00
             7.946444531094000E+00     8.044185798827000E+00     8.143129284152000E+00     8.243289774347000E+00
             8.344682238572000E+00     8.447321830106000E+00     8.551223888617001E+00     8.656403942447000E+00
             8.762877710939000E+00     8.870661106783000E+00     8.979770238397000E+00     9.090221412329001E+00
             9.202031135700000E+00     9.315216118670000E+00     9.429793276929001E+00     9.545779734236000E+00
             9.663192824967000E+00     9.782050096714000E+00     9.902369312903000E+00     1.002416845545000E+01
             1.014746572745000E+01     1.027227955590000E+01     1.039862859444000E+01     1.052653172615000E+01
             1.065600806638000E+01     1.078707696560000E+01     1.091975801228000E+01     1.105407103583000E+01
             1.119003610957000E+01     1.132767355371000E+01     1.146700393843000E+01     1.160804808687000E+01
             1.175082707834000E+01     1.189536225140000E+01     1.204167520709000E+01     1.218978781214000E+01
             1.233972220223000E+01     1.249150078532000E+01     1.264514624498000E+01     1.280068154379000E+01
             1.295812992678000E+01     1.311751492488000E+01     1.327886035845000E+01     1.344219034086000E+01
             1.360752928205000E+01     1.377490189222000E+01     1.394433318550000E+01     1.411584848368000E+01
             1.428947342003000E+01     1.446523394310000E+01     1.464315632060000E+01     1.482326714334000E+01
             1.500559332920000E+01     1.519016212715000E+01     1.537700112132000E+01     1.556613823511000E+01
             1.575760173540000E+01     1.595142023674000E+01     1.614762270566000E+01     1.634623846494000E+01
             1.654729719805000E+01     1.675082895359000E+01     1.695686414972000E+01     1.716543357876000E+01
             1.737656841178000E+01     1.759030020325000E+01     1.780666089575000E+01     1.802568282476000E+01
             1.824739872351000E+01     1.847184172781000E+01     1.869904538106000E+01     1.892904363925000E+01
             1.916187087601000E+01     1.939756188778000E+01     1.963615189900000E+01     1.987767656736000E+01
             2.012217198914000E+01     2.036967470461000E+01     2.062022170347000E+01     2.087385043043000E+01
             2.113059879072000E+01     2.139050515585000E+01     2.165360836926000E+01     2.191994775221000E+01
             2.218956310956000E+01     2.246249473580000E+01     2.273878342106000E+01     2.301847045713000E+01
             2.330159764376000E+01     2.358820729477000E+01     2.387834224450000E+01     2.417204585411000E+01
             2.446936201811000E+01     2.477033517094000E+01     2.507501029354000E+01     2.538343292015000E+01
             2.569564914507000E+01     2.601170562955000E+01     2.633164960880000E+01     2.665552889898000E+01
             2.698339190444000E+01     2.731528762487000E+01     2.765126566265000E+01     2.799137623030000E+01
             2.833567015793000E+01     2.868419890088000E+01     2.903701454736000E+01     2.939416982629000E+01
             2.975571811515000E+01     3.012171344797000E+01     3.049221052338000E+01     3.086726471282000E+01
             3.124693206879000E+01     3.163126933323000E+01     3.202033394603000E+01     3.241418405357000E+01
             3.281287851742000E+01     3.321647692319000E+01     3.362503958934000E+01     3.403862757629000E+01
             3.445730269548000E+01     3.488112751864000E+01     3.531016538711000E+01     3.574448042138000E+01
             3.618413753056000E+01     3.662920242219000E+01     3.707974161198000E+01     3.753582243381000E+01
             3.799751304974000E+01     3.846488246025000E+01     3.893800051451000E+01     3.941693792084000E+01
             3.990176625727000E+01     4.039255798223000E+01     4.088938644541000E+01     4.139232589869000E+01
             4.190145150725000E+01     4.241683936079000E+01     4.293856648492000E+01     4.346671085269000E+01
             4.400135139618000E+01     4.454256801835000E+01     4.509044160498000E+01     4.564505403672000E+01
             4.620648820137000E+01     4.677482800625000E+01     4.735015839072000E+01     4.793256533893000E+01
             4.852213589260000E+01     4.911895816408000E+01     4.972312134949000E+01     5.033471574209000E+01
             5.095383274572000E+01     5.158056488849000E+01     5.221500583662000E+01     5.285725040841000E+01