<UPF version="2.0.1">
  <PP_INFO>
    local psp - psp6 format
    42.000    14.000   20210830  zatom,zion,pspd
    6  11  0  0    1079 0  pspcode,pspxc,lmax,lloc,mmax,r2well
    0   0   0    rchrg,fchrg,qchrg
    5---- no use
    6---- no use
    7---- no use
    1.4000E+01  1    zion   lmax+1
    0.0000    0.0000    0.0000   0.0000
    0.0000    0.0000    0.0000
    0.0000    0.0000    0.0000
    0.0000    0.0000    0.0000
    0.0000    0.0000    0.0000
    0.0000    0.0000    0.0000
    0.0000    0.0000    0.0000
    0.0000    0.0000    0.0000
    0.0000    0.0000    0.0000
    0.0000    0.0000    0.0000
    md5 20d6b7e4123b85d675a131d96bd67baa mo_lps_fitmag.cpi
  </PP_INFO>
  <!--                               -->
  <!-- END OF HUMAN READABLE SECTION -->
  <!--                               -->
  <PP_HEADER
            generated="DFTpy"
            author="shaoxc"
            date="Wed Apr 17 11:12:50 2024"
            comment=""
            element="Mo"
            pseudo_type="NC"
            relativistic="nonrelativistic"
            is_ultrasoft="F"
            is_paw="F"
            is_coulomb="F"
            has_so="F"
            has_wfc="F"
            has_gipaw="F"
            paw_as_gipaw="F"
            core_correction="F"
            functional="pbe"
            z_valence="14.0"
            total_psenergy="0.0"
            wfc_cutoff="0.0"
            rho_cutoff="0.0"
            l_max="1"
            l_max_rho="0"
            l_local="-1"
            mesh_size="1079"
            number_of_wfc="0"
            number_of_proj="1"/>
  <PP_MESH>
    <PP_R type="real" size="1079" columns="4">
             1.488095238095000E-04     1.506398809524000E-04     1.524927514881000E-04     1.543684123314000E-04
             1.562671438031000E-04     1.581892296718000E-04     1.601349571968000E-04     1.621046171703000E-04
             1.640985039615000E-04     1.661169155603000E-04     1.681601536217000E-04     1.702285235112000E-04
             1.723223343504000E-04     1.744418990629000E-04     1.765875344214000E-04     1.787595610947000E-04
             1.809583036962000E-04     1.831840908317000E-04     1.854372551489000E-04     1.877181333872000E-04
             1.900270664279000E-04     1.923643993450000E-04     1.947304814569000E-04     1.971256663788000E-04
             1.995503120753000E-04     2.020047809138000E-04     2.044894397191000E-04     2.070046598276000E-04
             2.095508171435000E-04     2.121282921943000E-04     2.147374701883000E-04     2.173787410716000E-04
             2.200524995868000E-04     2.227591453317000E-04     2.254990828193000E-04     2.282727215380000E-04
             2.310804760129000E-04     2.339227658679000E-04     2.368000158881000E-04     2.397126560835000E-04
             2.426611217533000E-04     2.456458535509000E-04     2.486672975495000E-04     2.517259053094000E-04
             2.548221339447000E-04     2.579564461922000E-04     2.611293104804000E-04     2.643412009993000E-04
             2.675925977716000E-04     2.708839867242000E-04     2.742158597609000E-04     2.775887148360000E-04
             2.810030560284000E-04     2.844593936176000E-04     2.879582441591000E-04     2.915001305622000E-04
             2.950855821682000E-04     2.987151348288000E-04     3.023893309872000E-04     3.061087197584000E-04
             3.098738570114000E-04     3.136853054526000E-04     3.175436347097000E-04     3.214494214166000E-04
             3.254032493001000E-04     3.294057092664000E-04     3.334573994904000E-04     3.375589255042000E-04
             3.417109002879000E-04     3.459139443614000E-04     3.501686858770000E-04     3.544757607133000E-04
             3.588358125701000E-04     3.632494930647000E-04     3.677174618294000E-04     3.722403866099000E-04
             3.768189433652000E-04     3.814538163686000E-04     3.861456983099000E-04     3.908952903991000E-04
             3.957033024711000E-04     4.005704530915000E-04     4.054974696645000E-04     4.104850885414000E-04
             4.155340551304000E-04     4.206451240085000E-04     4.258190590338000E-04     4.310566334599000E-04
             4.363586300515000E-04     4.417258412011000E-04     4.471590690479000E-04     4.526591255972000E-04
             4.582268328420000E-04     4.638630228860000E-04     4.695685380675000E-04     4.753442310857000E-04
             4.811909651281000E-04     4.871096139992000E-04     4.931010622512999E-04     4.991662053170001E-04
             5.053059496424000E-04     5.115212128230000E-04     5.178129237408000E-04     5.241820227028000E-04
             5.306294615820000E-04     5.371562039595000E-04     5.437632252682000E-04     5.504515129390000E-04
             5.572220665481001E-04     5.640758979666999E-04     5.710140315117000E-04     5.780375040992000E-04
             5.851473653997000E-04     5.923446779941000E-04     5.996305175334000E-04     6.070059728991000E-04
             6.144721463657000E-04     6.220301537660000E-04     6.296811246573000E-04     6.374262024906000E-04
             6.452665447813000E-04     6.532033232821000E-04     6.612377241584000E-04     6.693709481656000E-04
             6.776042108280000E-04     6.859387426212000E-04     6.943757891555000E-04     7.029166113621000E-04
             7.115624856818000E-04     7.203147042557000E-04     7.291745751181000E-04     7.381434223920000E-04
             7.472225864874000E-04     7.564134243012000E-04     7.657173094201000E-04     7.751356323260000E-04
             7.846698006036000E-04     7.943212391510000E-04     8.040913903926000E-04     8.139817144944000E-04
             8.239936895827000E-04     8.341288119646000E-04     8.443885963517000E-04     8.547745760869000E-04
             8.652883033727000E-04     8.759313495042000E-04     8.867053051031000E-04     8.976117803559000E-04
             9.086524052543000E-04     9.198288298389000E-04     9.311427244459000E-04     9.425957799566000E-04
             9.541897080501000E-04     9.659262414591000E-04     9.778071342289999E-04     9.898341619799999E-04
             1.002009122172000E-03     1.014333834375000E-03     1.026810140538000E-03     1.039439905267000E-03
             1.052225016101000E-03     1.065167383799000E-03     1.078268942620000E-03     1.091531650614000E-03
             1.104957489917000E-03     1.118548467043000E-03     1.132306613187000E-03     1.146233984530000E-03
             1.160332662539000E-03     1.174604754289000E-03     1.189052392766000E-03     1.203677737197000E-03
             1.218482973365000E-03     1.233470313937000E-03     1.248641998799000E-03     1.264000295384000E-03
             1.279547499017000E-03     1.295285933255000E-03     1.311217950234000E-03     1.327345931022000E-03
             1.343672285974000E-03     1.360199455091000E-03     1.376929908389000E-03     1.393866146262000E-03
             1.411010699861000E-03     1.428366131469000E-03     1.445935034886000E-03     1.463720035815000E-03
             1.481723792256000E-03     1.499948994901000E-03     1.518398367538000E-03     1.537074667459000E-03
             1.555980685868000E-03     1.575119248305000E-03     1.594493215059000E-03     1.614105481604000E-03
             1.633958979028000E-03     1.654056674470000E-03     1.674401571566000E-03     1.694996710896000E-03
             1.715845170440000E-03     1.736950066036000E-03     1.758314551849000E-03     1.779941820836000E-03
             1.801835105233000E-03     1.823997677027000E-03     1.846432848454000E-03     1.869143972490000E-03
             1.892134443352000E-03     1.915407697005000E-03     1.938967211679000E-03     1.962816508382000E-03
             1.986959151435000E-03     2.011398748998000E-03     2.036138953610000E-03     2.061183462740000E-03
             2.086536019332000E-03     2.112200412369000E-03     2.138180477442000E-03     2.164480097314000E-03
             2.191103202511000E-03     2.218053771902000E-03     2.245335833296000E-03     2.272953464046000E-03
             2.300910791654000E-03     2.329211994391000E-03     2.357861301922000E-03     2.386862995936000E-03
             2.416221410786000E-03     2.445940934138000E-03     2.476026007628000E-03     2.506481127522000E-03
             2.537310845391000E-03     2.568519768789000E-03     2.600112561945000E-03     2.632093946457000E-03
             2.664468701998000E-03     2.697241667033000E-03     2.730417739537000E-03     2.764001877734000E-03
             2.797999100830000E-03     2.832414489770000E-03     2.867253187994000E-03     2.902520402206000E-03
             2.938221403154000E-03     2.974361526412000E-03     3.010946173187000E-03     3.047980811118000E-03
             3.085470975094000E-03     3.123422268088000E-03     3.161840361985000E-03     3.200730998438000E-03
             3.240099989719000E-03     3.279953219592000E-03     3.320296644193000E-03     3.361136292917000E-03
             3.402478269320000E-03     3.444328752032000E-03     3.486693995682000E-03     3.529580331829000E-03
             3.572994169911000E-03     3.616941998200000E-03     3.661430384778000E-03     3.706465978511000E-03
             3.752055510047000E-03     3.798205792820000E-03     3.844923724072000E-03     3.892216285878000E-03
             3.940090546194000E-03     3.988553659913000E-03     4.037612869930000E-03     4.087275508230000E-03
             4.137548996981000E-03     4.188440849644000E-03     4.239958672095000E-03     4.292110163761000E-03
             4.344903118775000E-03     4.398345427136000E-03     4.452445075890000E-03     4.507210150324000E-03
             4.562648835173000E-03     4.618769415845000E-03     4.675580279660000E-03     4.733089917100000E-03
             4.791306923080000E-03     4.850239998234000E-03     4.909897950212000E-03     4.970289695000000E-03
             5.031424258249000E-03     5.093310776625000E-03     5.155958499178000E-03     5.219376788717000E-03
             5.283575123219000E-03     5.348563097234000E-03     5.414350423330000E-03     5.480946933537000E-03
             5.548362580820000E-03     5.616607440564000E-03     5.685691712083000E-03     5.755625720141000E-03
             5.826419916499000E-03     5.898084881472000E-03     5.970631325514000E-03     6.044070090818000E-03
             6.118412152935000E-03     6.193668622416000E-03     6.269850746472000E-03     6.346969910653000E-03
             6.425037640554000E-03     6.504065603533000E-03     6.584065610457000E-03     6.665049617465000E-03
             6.747029727760000E-03     6.830018193412000E-03     6.914027417191000E-03     6.999069954422000E-03
             7.085158514861000E-03     7.172305964594000E-03     7.260525327959000E-03     7.349829789493000E-03
             7.440232695903000E-03     7.531747558063000E-03     7.624388053027000E-03     7.718168026079000E-03
             7.813101492800000E-03     7.909202641162001E-03     8.006485833648000E-03     8.104965609402000E-03
             8.204656686396999E-03     8.305573963640000E-03     8.407732523393000E-03     8.511147633431001E-03
             8.615834749322000E-03     8.721809516738000E-03     8.829087773794000E-03     8.937685553411999E-03
             9.047619085718999E-03     9.158904800472999E-03     9.271559329518999E-03     9.385599509271999E-03
             9.501042383236000E-03     9.617905204550000E-03     9.736205438566001E-03     9.855960765460000E-03
             9.977189082876000E-03     1.009990850860000E-02     1.022413738325000E-02     1.034989427306000E-02
             1.047719797262000E-02     1.060606750769000E-02     1.073652213803000E-02     1.086858136033000E-02
             1.100226491106000E-02     1.113759276947000E-02     1.127458516053000E-02     1.141326255801000E-02
             1.155364568747000E-02     1.169575552943000E-02     1.183961332244000E-02     1.198524056630000E-02
             1.213265902527000E-02     1.228189073128000E-02     1.243295798727000E-02     1.258588337052000E-02
             1.274068973597000E-02     1.289740021973000E-02     1.305603824243000E-02     1.321662751281000E-02
             1.337919203122000E-02     1.354375609320000E-02     1.371034429315000E-02     1.387898152796000E-02
             1.404969300075000E-02     1.422250422466000E-02     1.439744102662000E-02     1.457452955125000E-02
             1.475379626473000E-02     1.493526795879000E-02     1.511897175468000E-02     1.530493510726000E-02
             1.549318580908000E-02     1.568375199453000E-02     1.587666214407000E-02     1.607194508844000E-02
             1.626963001303000E-02     1.646974646219000E-02     1.667232434367000E-02     1.687739393310000E-02
             1.708498587848000E-02     1.729513120478000E-02     1.750786131860000E-02     1.772320801282000E-02
             1.794120347138000E-02     1.816188027407000E-02     1.838527140144000E-02     1.861141023968000E-02
             1.884033058563000E-02     1.907206665183000E-02     1.930665307165000E-02     1.954412490443000E-02
             1.978451764076000E-02     2.002786720774000E-02     2.027420997439000E-02     2.052358275708000E-02
             2.077602282499000E-02     2.103156790574000E-02     2.129025619098000E-02     2.155212634213000E-02
             2.181721749614000E-02     2.208556927134000E-02     2.235722177338000E-02     2.263221560119000E-02
             2.291059185308000E-02     2.319239213288000E-02     2.347765855611000E-02     2.376643375635000E-02
             2.405876089155000E-02     2.435468365052000E-02     2.465424625942000E-02     2.495749348841000E-02
             2.526447065832000E-02     2.557522364742000E-02     2.588979889828000E-02     2.620824342473000E-02
             2.653060481885000E-02     2.685693125812000E-02     2.718727151260000E-02     2.752167495220000E-02
             2.786019155412000E-02     2.820287191023000E-02     2.854976723473000E-02     2.890092937172000E-02
             2.925641080299000E-02     2.961626465586000E-02     2.998054471113000E-02     3.034930541108000E-02
             3.072260186763000E-02     3.110048987061000E-02     3.148302589602000E-02     3.187026711454000E-02
             3.226227140004000E-02     3.265909733826000E-02     3.306080423553000E-02     3.346745212762000E-02
             3.387910178879000E-02     3.429581474079000E-02     3.471765326211000E-02     3.514468039723000E-02
             3.557695996612000E-02     3.601455657370000E-02     3.645753561956000E-02     3.690596330768000E-02
             3.735990665636000E-02     3.781943350823000E-02     3.828461254039000E-02     3.875551327463000E-02
             3.923220608791000E-02     3.971476222279000E-02     4.020325379813000E-02     4.069775381985000E-02
             4.119833619183000E-02     4.170507572699000E-02     4.221804815843000E-02     4.273733015078000E-02
             4.326299931164000E-02     4.379513420317000E-02     4.433381435387000E-02     4.487912027042000E-02
             4.543113344975000E-02     4.598993639118000E-02     4.655561260879000E-02     4.712824664388000E-02
             4.770792407760000E-02     4.829473154375000E-02     4.888875674174000E-02     4.949008844967000E-02
             5.009881653760000E-02     5.071503198101000E-02     5.133882687438000E-02     5.197029444493000E-02
             5.260952906660000E-02     5.325662627412000E-02     5.391168277729000E-02     5.457479647545000E-02
             5.524606647210000E-02     5.592559308971000E-02     5.661347788471000E-02     5.730982366269000E-02
             5.801473449375000E-02     5.872831572802000E-02     5.945067401147000E-02     6.018191730181000E-02
             6.092215488463000E-02     6.167149738971000E-02     6.243005680760000E-02     6.319794650634000E-02
             6.397528124835999E-02     6.476217720772000E-02     6.555875198737000E-02     6.636512463682000E-02
             6.718141566985000E-02     6.800774708259000E-02     6.884424237171000E-02     6.969102655287999E-02
             7.054822617948001E-02     7.141596936149000E-02     7.229438578463000E-02     7.318360672978000E-02
             7.408376509256000E-02     7.499499540320000E-02     7.591743384666000E-02     7.685121828296999E-02
             7.779648826785000E-02     7.875338507354999E-02     7.972205170995000E-02     8.070263294598000E-02
             8.169527533121999E-02     8.270012721779001E-02     8.371733878257000E-02     8.474706204960000E-02
             8.578945091281000E-02     8.684466115903000E-02     8.791285049129000E-02     8.899417855232999E-02
             9.008880694853000E-02     9.119689927399000E-02     9.231862113505999E-02     9.345414017503000E-02
             9.460362609917999E-02     9.576725070019999E-02     9.694518788381000E-02     9.813761369478000E-02
             9.934470634323000E-02     1.005666462313000E-01     1.018036159799000E-01     1.030558004565000E-01
             1.043233868021000E-01     1.056065644597000E-01     1.069055252026000E-01     1.082204631626000E-01
             1.095515748595000E-01     1.108990592302000E-01     1.122631176588000E-01     1.136439540060000E-01
             1.150417746403000E-01     1.164567884683000E-01     1.178892069665000E-01     1.193392442122000E-01
             1.208071169160000E-01     1.222930444540000E-01     1.237972489008000E-01     1.253199550623000E-01
             1.268613905096000E-01     1.284217856129000E-01     1.300013735759000E-01     1.316003904709000E-01
             1.332190752737000E-01     1.348576698995000E-01     1.365164192393000E-01     1.381955711959000E-01
             1.398953767217000E-01     1.416160898553000E-01     1.433579677605000E-01     1.451212707640000E-01
             1.469062623944000E-01     1.487132094219000E-01     1.505423818977000E-01     1.523940531951000E-01
             1.542685000494000E-01     1.561660026000000E-01     1.580868444320000E-01     1.600313126185000E-01
             1.619996977637000E-01     1.639922940462000E-01     1.660093992629000E-01     1.680513148739000E-01
             1.701183460468000E-01     1.722108017032000E-01     1.743289945642000E-01     1.764732411973000E-01
             1.786438620640000E-01     1.808411815674000E-01     1.830655281007000E-01     1.853172340963000E-01
             1.875966360757000E-01     1.899040746994000E-01     1.922398948182000E-01     1.946044455245000E-01
             1.969980802045000E-01     1.994211565910000E-01     2.018740368170000E-01     2.043570874699000E-01
             2.068706796458000E-01     2.094151890054000E-01     2.119909958302000E-01     2.145984850789000E-01
             2.172380464454000E-01     2.199100744166000E-01     2.226149683320000E-01     2.253531324425000E-01
             2.281249759715000E-01     2.309309131759000E-01     2.337713634080000E-01     2.366467511779000E-01
             2.395575062174000E-01     2.425040635439000E-01     2.454868635255000E-01     2.485063519468000E-01
             2.515629800758000E-01     2.546572047307000E-01     2.577894883489000E-01     2.609602990556000E-01
             2.641701107340000E-01     2.674194030960000E-01     2.707086617541000E-01     2.740383782937000E-01
             2.774090503467000E-01     2.808211816659000E-01     2.842752822004000E-01     2.877718681715000E-01
             2.913114621500000E-01     2.948945931344000E-01     2.985217966300000E-01     3.021936147286000E-01
             3.059105961897000E-01     3.096732965228000E-01     3.134822780701000E-01     3.173381100904000E-01
             3.212413688445000E-01     3.251926376812000E-01     3.291925071247000E-01     3.332415749624000E-01
             3.373404463344000E-01     3.414897338243000E-01     3.456900575503000E-01     3.499420452582000E-01
             3.542463324149000E-01     3.586035623036000E-01     3.630143861199000E-01     3.674794630692000E-01
             3.719994604650000E-01     3.765750538287000E-01     3.812069269908000E-01     3.858957721928000E-01
             3.906422901907000E-01     3.954471903601000E-01     4.003111908015000E-01     4.052350184484000E-01
             4.102194091753000E-01     4.152651079081000E-01     4.203728687354000E-01     4.255434550208000E-01
             4.307776395176000E-01     4.360762044837000E-01     4.414399417988000E-01     4.468696530829000E-01
             4.523661498159000E-01     4.579302534586000E-01     4.635627955761000E-01     4.692646179617000E-01
             4.750365727626000E-01     4.808795226076000E-01     4.867943407357000E-01     4.927819111268000E-01
             4.988431286336000E-01     5.049788991158000E-01     5.111901395749000E-01     5.174777782917001E-01
             5.238427549647000E-01     5.302860208508000E-01     5.368085389072000E-01     5.434112839358000E-01
             5.500952427282000E-01     5.568614142138000E-01     5.637108096086000E-01     5.706444525668000E-01
             5.776633793333000E-01     5.847686388991000E-01     5.919612931576000E-01     5.992424170634000E-01
             6.066130987933001E-01     6.140744399085000E-01     6.216275555193000E-01     6.292735744522000E-01
             6.370136394180000E-01     6.448489071828000E-01     6.527805487412000E-01     6.608097494907000E-01
             6.689377094094000E-01     6.771656432352000E-01     6.854947806470000E-01     6.939263664489000E-01
             7.024616607562000E-01     7.111019391835000E-01     7.198484930355000E-01     7.287026294998000E-01
             7.376656718427000E-01     7.467389596063000E-01     7.559238488095000E-01     7.652217121499000E-01
             7.746339392093000E-01     7.841619366615999E-01     7.938071284825000E-01     8.035709561629000E-01
             8.134548789237001E-01     8.234603739344000E-01     8.335889365338000E-01     8.438420804532000E-01
             8.542213380428000E-01     8.647282605007000E-01     8.753644181048000E-01     8.861314004475001E-01
             8.970308166730000E-01     9.080642957181000E-01     9.192334865554000E-01     9.305400584401000E-01
             9.419857011589000E-01     9.535721252831000E-01     9.653010624241000E-01     9.771742654919000E-01
             9.891935089575000E-01     1.001360589118000E+00     1.013677324364000E+00     1.026145555453000E+00
             1.038767145786000E+00     1.051543981679000E+00     1.064477972653000E+00     1.077571051717000E+00
             1.090825175653000E+00     1.104242325314000E+00     1.117824505915000E+00     1.131573747338000E+00
             1.145492104430000E+00     1.159581657314000E+00     1.173844511699000E+00     1.188282799193000E+00
             1.202898677624000E+00     1.217694331358000E+00     1.232671971634000E+00     1.247833836885000E+00
             1.263182193079000E+00     1.278719334054000E+00     1.294447581863000E+00     1.310369287119000E+00
             1.326486829351000E+00     1.342802617352000E+00     1.359319089545000E+00     1.376038714347000E+00
             1.392963990533000E+00     1.410097447617000E+00     1.427441646222000E+00     1.444999178471000E+00
             1.462772668366000E+00     1.480764772187000E+00     1.498978178885000E+00     1.517415610485000E+00
             1.536079822494000E+00     1.554973604311000E+00     1.574099779644000E+00     1.593461206934000E+00
             1.613060779779000E+00     1.632901427370000E+00     1.652986114927000E+00     1.673317844140000E+00
             1.693899653623000E+00     1.714734619363000E+00     1.735825855181000E+00     1.757176513200000E+00
             1.778789784312000E+00     1.800668898659000E+00     1.822817126113000E+00     1.845237776764000E+00
             1.867934201418000E+00     1.890909792096000E+00     1.914167982538000E+00     1.937712248724000E+00
             1.961546109383000E+00     1.985673126528000E+00     2.010096905985000E+00     2.034821097928000E+00
             2.059849397433000E+00     2.085185545021000E+00     2.110833327225000E+00     2.136796577150000E+00
             2.163079175049000E+00     2.189685048902000E+00     2.216618175003000E+00     2.243882578556000E+00
             2.271482334272000E+00     2.299421566984000E+00     2.327704452258000E+00     2.356335217020000E+00
             2.385318140190000E+00     2.414657553314000E+00     2.444357841220000E+00     2.474423442667000E+00
             2.504858851011000E+00     2.535668614879000E+00     2.566857338842000E+00     2.598429684110000E+00
             2.630390369224000E+00     2.662744170766000E+00     2.695495924066000E+00     2.728650523932000E+00
             2.762212925377000E+00     2.796188144359000E+00     2.830581258534000E+00     2.865397408014000E+00
             2.900641796133000E+00     2.936319690225000E+00     2.972436422415000E+00     3.008997390411000E+00
             3.046008058313000E+00     3.083473957430000E+00     3.121400687106000E+00     3.159793915558000E+00
             3.198659380719000E+00     3.238002891102000E+00     3.277830326663000E+00     3.318147639680000E+00
             3.358960855649000E+00     3.400276074173000E+00     3.442099469885000E+00     3.484437293365000E+00
             3.527295872073000E+00     3.570681611300000E+00     3.614600995119000E+00     3.659060587359000E+00
             3.704067032583000E+00     3.749627057084000E+00     3.795747469886000E+00     3.842435163766000E+00
             3.889697116280000E+00     3.937540390810000E+00     3.985972137617000E+00     4.034999594910000E+00
             4.084630089927000E+00     4.134871040034000E+00     4.185729953826000E+00     4.237214432258000E+00
             4.289332169775000E+00     4.342090955463000E+00     4.395498674215000E+00     4.449563307908000E+00
             4.504292936595000E+00     4.559695739716000E+00     4.615779997314000E+00     4.672554091281000E+00
             4.730026506604000E+00     4.788205832635000E+00     4.847100764376000E+00     4.906720103778000E+00
             4.967072761055000E+00     5.028167756016000E+00     5.090014219415000E+00     5.152621394313000E+00
             5.215998637463000E+00     5.280155420704000E+00     5.345101332379000E+00     5.410846078767000E+00
             5.477399485536000E+00     5.544771499208000E+00     5.612972188648000E+00     5.682011746569000E+00
             5.751900491052000E+00     5.822648867091000E+00     5.894267448157000E+00     5.966766937769000E+00
             6.040158171104000E+00     6.114452116608000E+00     6.189659877642000E+00     6.265792694137000E+00
             6.342861944275000E+00     6.420879146190000E+00     6.499855959688000E+00     6.579804187992000E+00
             6.660735779504000E+00     6.742662829592000E+00     6.825597582396000E+00     6.909552432660000E+00
             6.994539927582000E+00     7.080572768691000E+00     7.167663813746000E+00     7.255826078655000E+00
             7.345072739422000E+00     7.435417134117000E+00     7.526872764867000E+00     7.619453299875000E+00
             7.713172575463000E+00     7.808044598141000E+00     7.904083546698000E+00     8.001303774323000E+00
             8.099719810747001E+00     8.199346364419000E+00     8.300198324702000E+00     8.402290764095000E+00
             8.505638940494000E+00     8.610258299462000E+00     8.716164476545000E+00     8.823373299607001E+00
             8.931900791192000E+00     9.041763170924000E+00     9.152976857925999E+00     9.265558473278000E+00
             9.379524842500000E+00     9.494892998062999E+00     9.611680181939001E+00     9.729903848176001E+00
             9.849581665509000E+00     9.970731519995001E+00     1.009337151769000E+01     1.021751998736000E+01
             1.034319548320000E+01     1.047041678765000E+01     1.059920291413000E+01     1.072957310998000E+01
             1.086154685923000E+01     1.099514388560000E+01     1.113038415539000E+01     1.126728788050000E+01
             1.140587552143000E+01     1.154616779035000E+01     1.168818565417000E+01     1.183195033771000E+01
             1.197748332687000E+01     1.212480637179000E+01     1.227394149016000E+01     1.242491097049000E+01
             1.257773737543000E+01     1.273244354515000E+01     1.288905260075000E+01     1.304758794774000E+01
             1.320807327950000E+01     1.337053258084000E+01     1.353499013158000E+01     1.370147051020000E+01
             1.386999859747000E+01     1.404059958022000E+01     1.421329895506000E+01     1.438812253221000E+01
             1.456509643935000E+01     1.474424712556000E+01     1.492560136520000E+01     1.510918626199000E+01
             1.529502925302000E+01     1.548315811283000E+01     1.567360095762000E+01     1.586638624939000E+01
             1.606154280026000E+01     1.625909977670000E+01     1.645908670396000E+01     1.666153347042000E+01
             1.686647033210000E+01     1.707392791719000E+01     1.728393723057000E+01     1.749652965851000E+01
             1.771173697331000E+01     1.792959133808000E+01     1.815012531153000E+01     1.837337185287000E+01
             1.859936432666000E+01     1.882813650788000E+01     1.905972258692000E+01     1.929415717474000E+01
             1.953147530799000E+01     1.977171245428000E+01     2.001490451747000E+01     2.026108784303000E+01
             2.051029922350000E+01     2.076257590395000E+01     2.101795558757000E+01     2.127647644130000E+01
             2.153817710152000E+01     2.180309667987000E+01     2.207127476903000E+01     2.234275144869000E+01
             2.261756729151000E+01     2.289576336920000E+01     2.317738125864000E+01     2.346246304812000E+01
             2.375105134361000E+01     2.404318927514000E+01     2.433892050322000E+01     2.463828922541000E+01
             2.494134018289000E+01     2.524811866713000E+01     2.555867052674000E+01     2.587304217422000E+01
             2.619128059296000E+01     2.651343334426000E+01     2.683954857439000E+01     2.716967502185000E+01
             2.750386202462000E+01     2.784215952753000E+01     2.818461808972000E+01     2.853128889222000E+01
             2.888222374559000E+01     2.923747509766000E+01     2.959709604137000E+01     2.996114032267000E+01
             3.032966234864000E+01     3.070271719553000E+01     3.108036061704000E+01     3.146264905263000E+01