<UPF version="2.0.1">
  <PP_INFO>
    local psp - psp6 format
    46.000    18.000   20210830  zatom,zion,pspd
    6  11  0  0    1087 0  pspcode,pspxc,lmax,lloc,mmax,r2well
    0   0   0    rchrg,fchrg,qchrg
    5---- no use
    6---- no use
    7---- no use
    1.8000E+01  1    zion   lmax+1
    0.0000    0.0000    0.0000   0.0000
    0.0000    0.0000    0.0000
    0.0000    0.0000    0.0000
    0.0000    0.0000    0.0000
    0.0000    0.0000    0.0000
    0.0000    0.0000    0.0000
    0.0000    0.0000    0.0000
    0.0000    0.0000    0.0000
    0.0000    0.0000    0.0000
    0.0000    0.0000    0.0000
    md5 bf6a9b33e9a537196c2082d2f76cf146 pd_lps.cpi
  </PP_INFO>
  <!--                               -->
  <!-- END OF HUMAN READABLE SECTION -->
  <!--                               -->
  <PP_HEADER
            generated="DFTpy"
            author="shaoxc"
            date="Wed Apr 17 11:13:31 2024"
            comment=""
            element="Pd"
            pseudo_type="NC"
            relativistic="nonrelativistic"
            is_ultrasoft="F"
            is_paw="F"
            is_coulomb="F"
            has_so="F"
            has_wfc="F"
            has_gipaw="F"
            paw_as_gipaw="F"
            core_correction="F"
            functional="pbe"
            z_valence="18.0"
            total_psenergy="0.0"
            wfc_cutoff="0.0"
            rho_cutoff="0.0"
            l_max="1"
            l_max_rho="0"
            l_local="-1"
            mesh_size="1087"
            number_of_wfc="0"
            number_of_proj="1"/>
  <PP_MESH>
    <PP_R type="real" size="1087" columns="4">
             1.358695652174000E-04     1.375407608696000E-04     1.392325122283000E-04     1.409450721287000E-04
             1.426786965158000E-04     1.444336444830000E-04     1.462101783101000E-04     1.480085635034000E-04
             1.498290688344000E-04     1.516719663811000E-04     1.535375315676000E-04     1.554260432059000E-04
             1.573377835373000E-04     1.592730382748000E-04     1.612320966456000E-04     1.632152514343000E-04
             1.652227990270000E-04     1.672550394550000E-04     1.693122764403000E-04     1.713948174405000E-04
             1.735029736950000E-04     1.756370602715000E-04     1.777973961128000E-04     1.799843040850000E-04
             1.821981110253000E-04     1.844391477909000E-04     1.867077493087000E-04     1.890042546252000E-04
             1.913290069571000E-04     1.936823537427000E-04     1.960646466937000E-04     1.984762418480000E-04
             2.009174996228000E-04     2.033887848681000E-04     2.058904669220000E-04     2.084229196651000E-04
             2.109865215770000E-04     2.135816557924000E-04     2.162087101587000E-04     2.188680772936000E-04
             2.215601546443000E-04     2.242853445465000E-04     2.270440542844000E-04     2.298366961521000E-04
             2.326636875147000E-04     2.355254508712000E-04     2.384224139169000E-04     2.413550096081000E-04
             2.443236762262000E-04     2.473288574438000E-04     2.503710023904000E-04     2.534505657198000E-04
             2.565680076781000E-04     2.597237941726000E-04     2.629183968409000E-04     2.661522931220000E-04
             2.694259663274000E-04     2.727399057133000E-04     2.760946065536000E-04     2.794905702142000E-04
             2.829283042278000E-04     2.864083223698000E-04     2.899311447349000E-04     2.934972978152000E-04
             2.971073145783000E-04     3.007617345476000E-04     3.044611038826000E-04     3.082059754603000E-04
             3.119969089585000E-04     3.158344709387000E-04     3.197192349312000E-04     3.236517815209000E-04
             3.276326984336000E-04     3.316625806243000E-04     3.357420303660000E-04     3.398716573395000E-04
             3.440520787248000E-04     3.482839192931000E-04     3.525678115004000E-04     3.569043955818000E-04
             3.612943196475000E-04     3.657382397792000E-04     3.702368201284000E-04     3.747907330160000E-04
             3.794006590321000E-04     3.840672871382000E-04     3.887913147700000E-04     3.935734479417000E-04
             3.984144013514000E-04     4.033148984880000E-04     4.082756717394000E-04     4.132974625018000E-04
             4.183810212906000E-04     4.235271078524000E-04     4.287364912790000E-04     4.340099501218000E-04
             4.393482725083000E-04     4.447522562601000E-04     4.502227090121000E-04     4.557604483330000E-04
             4.613663018474000E-04     4.670411073602000E-04     4.727857129807000E-04     4.786009772504000E-04
             4.844877692705000E-04     4.904469688326000E-04     4.964794665492000E-04     5.025861639878000E-04
             5.087679738048000E-04     5.150258198826000E-04     5.213606374672000E-04     5.277733733080000E-04
             5.342649857997000E-04     5.408364451250000E-04     5.474887334001000E-04     5.542228448209000E-04
             5.610397858122000E-04     5.679405751777000E-04     5.749262442524000E-04     5.819978370567000E-04
             5.891564104525000E-04     5.964030343010000E-04     6.037387916229000E-04     6.111647787599000E-04
             6.186821055386000E-04     6.262918954368000E-04     6.339952857506000E-04     6.417934277654000E-04
             6.496874869269000E-04     6.576786430161000E-04     6.657680903252000E-04     6.739570378362000E-04
             6.822467094016000E-04     6.906383439272000E-04     6.991331955575000E-04     7.077325338629000E-04
             7.164376440294000E-04     7.252498270510000E-04     7.341703999237000E-04     7.432006958427000E-04
             7.523420644016000E-04     7.615958717936999E-04     7.709635010168000E-04     7.804463520793000E-04
             7.900458422099000E-04     7.997634060691000E-04     8.096004959637000E-04     8.195585820641000E-04
             8.296391526235000E-04     8.398437142007000E-04     8.501737918854000E-04     8.606309295256000E-04
             8.712166899588000E-04     8.819326552452000E-04     8.927804269047999E-04     9.037616261557000E-04
             9.148778941574000E-04     9.261308922555000E-04     9.375223022303000E-04     9.490538265477000E-04
             9.607271886142000E-04     9.725441330342000E-04     9.845064258704999E-04     9.966158549087000E-04
             1.008874229924000E-03     1.021283382952000E-03     1.033845168562000E-03     1.046561464136000E-03
             1.059434170145000E-03     1.072465210437000E-03     1.085656532526000E-03     1.099010107876000E-03
             1.112527932203000E-03     1.126212025769000E-03     1.140064433686000E-03     1.154087226220000E-03
             1.168282499103000E-03     1.182652373842000E-03     1.197198998040000E-03     1.211924545716000E-03
             1.226831217628000E-03     1.241921241605000E-03     1.257196872877000E-03     1.272660394413000E-03
             1.288314117264000E-03     1.304160380907000E-03     1.320201553592000E-03     1.336440032701000E-03
             1.352878245103000E-03     1.369518647518000E-03     1.386363726882000E-03     1.403416000723000E-03
             1.420678017532000E-03     1.438152357148000E-03     1.455841631141000E-03     1.473748483204000E-03
             1.491875589547000E-03     1.510225659298000E-03     1.528801434908000E-03     1.547605692557000E-03
             1.566641242576000E-03     1.585910929859000E-03     1.605417634297000E-03     1.625164271198000E-03
             1.645153791734000E-03     1.665389183373000E-03     1.685873470328000E-03     1.706609714013000E-03
             1.727601013495000E-03     1.748850505961000E-03     1.770361367185000E-03     1.792136812001000E-03
             1.814180094789000E-03     1.836494509955000E-03     1.859083392427000E-03     1.881950118154000E-03
             1.905098104607000E-03     1.928530811294000E-03     1.952251740273000E-03     1.976264436678000E-03
             2.000572489249000E-03     2.025179530867000E-03     2.050089239097000E-03     2.075305336738000E-03
             2.100831592379000E-03     2.126671820966000E-03     2.152829884364000E-03     2.179309691941000E-03
             2.206115201152000E-03     2.233250418126000E-03     2.260719398269000E-03     2.288526246868000E-03
             2.316675119704000E-03     2.345170223677000E-03     2.374015817428000E-03     2.403216211982000E-03
             2.432775771390000E-03     2.462698913378000E-03     2.492990110012000E-03     2.523653888366000E-03
             2.554694831192000E-03     2.586117577616000E-03     2.617926823821000E-03     2.650127323754000E-03
             2.682723889836000E-03     2.715721393681000E-03     2.749124766823000E-03     2.782939001455000E-03
             2.817169151173000E-03     2.851820331733000E-03     2.886897721813000E-03     2.922406563791000E-03
             2.958352164526000E-03     2.994739896149000E-03     3.031575196872000E-03     3.068863571793000E-03
             3.106610593727000E-03     3.144821904029000E-03     3.183503213449000E-03     3.222660302974000E-03
             3.262299024701000E-03     3.302425302705000E-03     3.343045133928000E-03     3.384164589075000E-03
             3.425789813521000E-03     3.467927028227000E-03     3.510582530675000E-03     3.553762695802000E-03
             3.597473976960000E-03     3.641722906877000E-03     3.686516098631000E-03     3.731860246645000E-03
             3.777762127678000E-03     3.824228601849000E-03     3.871266613651000E-03     3.918883192999000E-03
             3.967085456273000E-03     4.015880607385000E-03     4.065275938856000E-03     4.115278832904000E-03
             4.165896762549000E-03     4.217137292728000E-03     4.269008081429000E-03     4.321516880830000E-03
             4.374671538465000E-03     4.428479998388000E-03     4.482950302368000E-03     4.538090591087000E-03
             4.593909105357000E-03     4.650414187353000E-03     4.707614281858000E-03     4.765517937525000E-03
             4.824133808156000E-03     4.883470653997000E-03     4.943537343041000E-03     5.004342852360000E-03
             5.065896269444000E-03     5.128206793558000E-03     5.191283737119000E-03     5.255136527086000E-03
             5.319774706369000E-03     5.385207935257000E-03     5.451445992861000E-03     5.518498778573000E-03
             5.586376313549000E-03     5.655088742206000E-03     5.724646333735000E-03     5.795059483640000E-03
             5.866338715289000E-03     5.938494681487000E-03     6.011538166069000E-03     6.085480085512000E-03
             6.160331490564000E-03     6.236103567898000E-03     6.312807641783000E-03     6.390455175777000E-03
             6.469057774439000E-03     6.548627185064000E-03     6.629175299441000E-03     6.710714155624000E-03
             6.793255939738000E-03     6.876812987797000E-03     6.961397787546000E-03     7.047022980333000E-03
             7.133701362991000E-03     7.221445889756000E-03     7.310269674200000E-03     7.400185991193000E-03
             7.491208278885000E-03     7.583350140715000E-03     7.676625347446000E-03     7.771047839219000E-03
             7.866631727641999E-03     7.963391297891999E-03     8.061341010856000E-03     8.160495505289000E-03
             8.260869600004000E-03     8.362478296084001E-03     8.465336779126000E-03     8.569460421509001E-03
             8.674864784694000E-03     8.781565621546000E-03     8.889578878691001E-03     8.998920698899000E-03
             9.109607423495000E-03     9.221655594804000E-03     9.335081958620000E-03     9.449903466711001E-03
             9.566137279352000E-03     9.683800767888001E-03     9.802911517333000E-03     9.923487328996001E-03
             1.004554622314000E-02     1.016910644169000E-02     1.029418645092000E-02     1.042080494427000E-02
             1.054898084508000E-02     1.067873330948000E-02     1.081008172918000E-02     1.094304573445000E-02
             1.107764519699000E-02     1.121390023291000E-02     1.135183120577000E-02     1.149145872960000E-02
             1.163280367198000E-02     1.177588715714000E-02     1.192073056918000E-02     1.206735555518000E-02
             1.221578402851000E-02     1.236603817206000E-02     1.251814044157000E-02     1.267211356900000E-02
             1.282798056590000E-02     1.298576472686000E-02     1.314548963300000E-02     1.330717915549000E-02
             1.347085745910000E-02     1.363654900585000E-02     1.380427855862000E-02     1.397407118489000E-02
             1.414595226047000E-02     1.431994747327000E-02     1.449608282719000E-02     1.467438464597000E-02
             1.485487957711000E-02     1.503759459591000E-02     1.522255700944000E-02     1.540979446065000E-02
             1.559933493252000E-02     1.579120675219000E-02     1.598543859524000E-02     1.618205948996000E-02
             1.638109882169000E-02     1.658258633720000E-02     1.678655214915000E-02     1.699302674058000E-02
             1.720204096949000E-02     1.741362607341000E-02     1.762781367412000E-02     1.784463578231000E-02
             1.806412480243000E-02     1.828631353750000E-02     1.851123519401000E-02     1.873892338690000E-02
             1.896941214456000E-02     1.920273591393000E-02     1.943892956568000E-02     1.967802839933000E-02
             1.992006814865000E-02     2.016508498687000E-02     2.041311553221000E-02     2.066419685326000E-02
             2.091836647455000E-02     2.117566238219000E-02     2.143612302949000E-02     2.169978734275000E-02
             2.196669472707000E-02     2.223688507221000E-02     2.251039875860000E-02     2.278727666333000E-02
             2.306756016629000E-02     2.335129115634000E-02     2.363851203756000E-02     2.392926573562000E-02
             2.422359570417000E-02     2.452154593133000E-02     2.482316094629000E-02     2.512848582593000E-02
             2.543756620159000E-02     2.575044826586000E-02     2.606717877953000E-02     2.638780507852000E-02
             2.671237508099000E-02     2.704093729448000E-02     2.737354082321000E-02     2.771023537533000E-02
             2.805107127045000E-02     2.839609944707000E-02     2.874537147027000E-02     2.909893953936000E-02
             2.945685649569000E-02     2.981917583059000E-02     3.018595169331000E-02     3.055723889913000E-02
             3.093309293759000E-02     3.131356998073000E-02     3.169872689149000E-02     3.208862123225000E-02
             3.248331127341000E-02     3.288285600207000E-02     3.328731513090000E-02     3.369674910701000E-02
             3.411121912103000E-02     3.453078711621000E-02     3.495551579774000E-02     3.538546864206000E-02
             3.582070990635000E-02     3.626130463820000E-02     3.670731868525000E-02     3.715881870508000E-02
             3.761587217515000E-02     3.807854740291000E-02     3.854691353596000E-02     3.902104057245000E-02
             3.950099937150000E-02     3.998686166376000E-02     4.047870006223000E-02     4.097658807299000E-02
             4.148060010629000E-02     4.199081148760000E-02     4.250729846890000E-02     4.303013824006000E-02
             4.355940894042000E-02     4.409518967038000E-02     4.463756050333000E-02     4.518660249752000E-02
             4.574239770824000E-02     4.630502920005000E-02     4.687458105921000E-02     4.745113840624000E-02
             4.803478740864000E-02     4.862561529376000E-02     4.922371036188000E-02     4.982916199933000E-02
             5.044206069192000E-02     5.106249803843000E-02     5.169056676430000E-02     5.232636073550000E-02
             5.296997497255000E-02     5.362150566471000E-02     5.428105018439000E-02     5.494870710166000E-02
             5.562457619901000E-02     5.630875848626000E-02     5.700135621564000E-02     5.770247289709000E-02
             5.841221331372000E-02     5.913068353748000E-02     5.985799094499000E-02     6.059424423362000E-02
             6.133955343769000E-02     6.209402994497000E-02     6.285778651330000E-02     6.363093728741000E-02
             6.441359781604000E-02     6.520588506918000E-02     6.600791745553000E-02     6.681981484023999E-02
             6.764169856277000E-02     6.847369145509000E-02     6.931591785999000E-02     7.016850364967001E-02
             7.103157624456000E-02     7.190526463237000E-02     7.278969938735000E-02     7.368501268980999E-02
             7.459133834590000E-02     7.550881180754999E-02     7.643757019278000E-02     7.737775230615000E-02
             7.832949865952001E-02     7.929295149303001E-02     8.026825479640000E-02     8.125555433039000E-02
             8.225499764866000E-02     8.326673411973000E-02     8.429091494941000E-02     8.532769320328000E-02
             8.637722382969000E-02     8.743966368279001E-02     8.851517154609000E-02     8.960390815610000E-02
             9.070603622642000E-02     9.182172047201000E-02     9.295112763382000E-02     9.409442650371000E-02
             9.525178794971000E-02     9.642338494149000E-02     9.760939257626999E-02     9.880998810496000E-02
             1.000253509587000E-01     1.012556627754000E-01     1.025011074276000E-01     1.037618710489000E-01
             1.050381420628000E-01     1.063301112102000E-01     1.076379715781000E-01     1.089619186285000E-01
             1.103021502276000E-01     1.116588666754000E-01     1.130322707356000E-01     1.144225676656000E-01
             1.158299652479000E-01     1.172546738204000E-01     1.186969063084000E-01     1.201568782560000E-01
             1.216348078586000E-01     1.231309159952000E-01     1.246454262620000E-01     1.261785650050000E-01
             1.277305613545000E-01     1.293016472592000E-01     1.308920575205000E-01     1.325020298280000E-01
             1.341318047949000E-01     1.357816259939000E-01     1.374517399936000E-01     1.391423963955000E-01
             1.408538478712000E-01     1.425863502000000E-01     1.443401623075000E-01     1.461155463038000E-01
             1.479127675234000E-01     1.497320945639000E-01     1.515737993270000E-01     1.534381570588000E-01
             1.553254463906000E-01     1.572359493812000E-01     1.591699515586000E-01     1.611277419628000E-01
             1.631096131889000E-01     1.651158614311000E-01     1.671467865267000E-01     1.692026920010000E-01
             1.712838851126000E-01     1.733906768995000E-01     1.755233822253000E-01     1.776823198267000E-01
             1.798678123606000E-01     1.820801864526000E-01     1.843197727460000E-01     1.865869059508000E-01
             1.888819248940000E-01     1.912051725702000E-01     1.935569961928000E-01     1.959377472460000E-01
             1.983477815371000E-01     2.007874592500000E-01     2.032571449988000E-01     2.057572078822000E-01
             2.082880215392000E-01     2.108499642041000E-01     2.134434187638000E-01     2.160687728146000E-01
             2.187264187203000E-01     2.214167536705000E-01     2.241401797407000E-01     2.268971039515000E-01
             2.296879383301000E-01     2.325130999715000E-01     2.353730111012000E-01     2.382680991377000E-01
             2.411987967571000E-01     2.441655419572000E-01     2.471687781233000E-01     2.502089540942000E-01
             2.532865242296000E-01     2.564019484776000E-01     2.595556924439000E-01     2.627482274609000E-01
             2.659800306587000E-01     2.692515850358000E-01     2.725633795318000E-01     2.759159091000000E-01
             2.793096747819000E-01     2.827451837817000E-01     2.862229495423000E-01     2.897434918216000E-01
             2.933073367710000E-01     2.969150170133000E-01     3.005670717226000E-01     3.042640467048000E-01
             3.080064944792000E-01     3.117949743613000E-01     3.156300525460000E-01     3.195123021923000E-01
             3.234423035093000E-01     3.274206438424000E-01     3.314479177617000E-01     3.355247271501000E-01
             3.396516812941000E-01     3.438293969740000E-01     3.480584985568000E-01     3.523396180890000E-01
             3.566733953915000E-01     3.610604781548000E-01     3.655015220361000E-01     3.699971907572000E-01
             3.745481562035000E-01     3.791550985248000E-01     3.838187062367000E-01     3.885396763234000E-01
             3.933187143422000E-01     3.981565345286000E-01     4.030538599033000E-01     4.080114223801000E-01
             4.130299628753000E-01     4.181102314187000E-01     4.232529872652000E-01     4.284589990085000E-01
             4.337290446963000E-01     4.390639119461000E-01     4.444643980630000E-01     4.499313101592000E-01
             4.554654652742000E-01     4.610676904970000E-01     4.667388230902000E-01     4.724797106142000E-01
             4.782912110547000E-01     4.841741929507000E-01     4.901295355240000E-01     4.961581288109000E-01
             5.022608737953000E-01     5.084386825430000E-01     5.146924783383000E-01     5.210231958218000E-01
             5.274317811304000E-01     5.339191920383000E-01     5.404863981004000E-01     5.471343807970001E-01
             5.538641336808000E-01     5.606766625251000E-01     5.675729854742000E-01     5.745541331955000E-01
             5.816211490338000E-01     5.887750891669000E-01     5.960170227637001E-01     6.033480321437000E-01
             6.107692129390000E-01     6.182816742582000E-01     6.258865388515999E-01     6.335849432795000E-01
             6.413780380818001E-01     6.492669879502000E-01     6.572529719020000E-01     6.653371834564000E-01
             6.735208308129000E-01     6.818051370319000E-01     6.901913402174000E-01     6.986806937020000E-01
             7.072744662346000E-01     7.159739421693000E-01     7.247804216579000E-01     7.336952208444000E-01
             7.427196720607000E-01     7.518551240271000E-01     7.611029420526000E-01     7.704645082399000E-01
             7.799412216911999E-01     7.895344987180000E-01     7.992457730522000E-01     8.090764960608000E-01
             8.190281369623000E-01     8.291021830470000E-01     8.393001398984000E-01     8.496235316192000E-01
             8.600739010581000E-01     8.706528100411000E-01     8.813618396046000E-01     8.922025902318000E-01
             9.031766820916000E-01     9.142857552814000E-01     9.255314700713000E-01     9.369155071532000E-01
             9.484395678912000E-01     9.601053745762000E-01     9.719146706835000E-01     9.838692211329000E-01
             9.959708125529000E-01     1.008221253547000E+00     1.020622374966000E+00     1.033176030178000E+00
             1.045884095349000E+00     1.058748469722000E+00     1.071771075900000E+00     1.084953860133000E+00
             1.098298792613000E+00     1.111807867762000E+00     1.125483104535000E+00     1.139326546721000E+00
             1.153340263246000E+00     1.167526348484000E+00     1.181886922570000E+00     1.196424131718000E+00
             1.211140148538000E+00     1.226037172365000E+00     1.241117429585000E+00     1.256383173969000E+00
             1.271836687009000E+00     1.287480278259000E+00     1.303316285681000E+00     1.319347075995000E+00
             1.335575045030000E+00     1.352002618084000E+00     1.368632250286000E+00     1.385466426965000E+00
             1.402507664016000E+00     1.419758508284000E+00     1.437221537936000E+00     1.454899362852000E+00
             1.472794625015000E+00     1.490909998903000E+00     1.509248191890000E+00     1.527811944650000E+00
             1.546604031569000E+00     1.565627261157000E+00     1.584884476470000E+00     1.604378555530000E+00
             1.624112411763000E+00     1.644088994428000E+00     1.664311289059000E+00     1.684782317915000E+00
             1.705505140425000E+00     1.726482853653000E+00     1.747718592752000E+00     1.769215531443000E+00
             1.790976882480000E+00     1.813005898135000E+00     1.835305870682000E+00     1.857880132891000E+00
             1.880732058526000E+00     1.903865062845000E+00     1.927282603118000E+00     1.950988179137000E+00
             1.974985333740000E+00     1.999277653345000E+00     2.023868768481000E+00     2.048762354334000E+00
             2.073962131292000E+00     2.099471865507000E+00     2.125295369453000E+00     2.151436502497000E+00
             2.177899171477000E+00     2.204687331287000E+00     2.231804985461000E+00     2.259256186783000E+00
             2.287045037880000E+00     2.315175691846000E+00     2.343652352856000E+00     2.372479276796000E+00
             2.401660771900000E+00     2.431201199395000E+00     2.461104974147000E+00     2.491376565329000E+00
             2.522020497083000E+00     2.553041349197000E+00     2.584443757792000E+00     2.616232416013000E+00
             2.648412074730000E+00     2.680987543249000E+00     2.713963690031000E+00     2.747345443418000E+00
             2.781137792372000E+00     2.815345787219000E+00     2.849974540402000E+00     2.885029227248000E+00
             2.920515086744000E+00     2.956437422311000E+00     2.992801602605000E+00     3.029613062317000E+00
             3.066877302983000E+00     3.104599893810000E+00     3.142786472504000E+00     3.181442746116000E+00
             3.220574491893000E+00     3.260187558143000E+00     3.300287865108000E+00     3.340881405849000E+00
             3.381974247141000E+00     3.423572530381000E+00     3.465682472505000E+00     3.508310366917000E+00
             3.551462584430000E+00     3.595145574218000E+00     3.639365864781000E+00     3.684130064918000E+00
             3.729444864716000E+00     3.775317036552000E+00     3.821753436102000E+00     3.868761003366000E+00
             3.916346763707000E+00     3.964517828901000E+00     4.013281398196000E+00     4.062644759394000E+00
             4.112615289935000E+00     4.163200458001000E+00     4.214407823634000E+00     4.266245039865000E+00
             4.318719853856000E+00     4.371840108058000E+00     4.425613741387000E+00     4.480048790406000E+00
             4.535153390528000E+00     4.590935777232000E+00     4.647404287292000E+00     4.704567360025000E+00
             4.762433538554000E+00     4.821011471078000E+00     4.880309912172000E+00     4.940337724092000E+00
             5.001103878098000E+00     5.062617455799000E+00     5.124887650505000E+00     5.187923768606000E+00
             5.251735230960000E+00     5.316331574301000E+00     5.381722452665000E+00     5.447917638833000E+00
             5.514927025790000E+00     5.582760628207000E+00     5.651428583934000E+00     5.720941155517000E+00
             5.791308731730000E+00     5.862541829130000E+00     5.934651093628000E+00     6.007647302080000E+00
             6.081541363896000E+00     6.156344322671000E+00     6.232067357840000E+00     6.308721786342000E+00
             6.386319064314000E+00     6.464870788805000E+00     6.544388699507000E+00     6.624884680511000E+00
             6.706370762081000E+00     6.788859122455000E+00     6.872362089661000E+00     6.956892143364000E+00
             7.042461916727000E+00     7.129084198303000E+00     7.216771933942000E+00     7.305538228730000E+00
             7.395396348943000E+00     7.486359724035000E+00     7.578441948641000E+00     7.671656784609000E+00
             7.766018163060000E+00     7.861540186465000E+00     7.958237130759000E+00     8.056123447467000E+00
             8.155213765871000E+00     8.255522895191000E+00     8.357065826802000E+00     8.459857736471999E+00
             8.563913986630000E+00     8.669250128666000E+00     8.775881905247999E+00     8.883825252683000E+00
             8.993096303291001E+00     9.103711387821001E+00     9.215687037892000E+00     9.329039988458000E+00
             9.443787180316001E+00     9.559945762633999E+00     9.677533095514001E+00     9.796566752588999E+00
             9.917064523645999E+00     1.003904441729000E+01     1.016252466362000E+01     1.028752371698000E+01
             1.041406025870000E+01     1.054215319988000E+01     1.067182168424000E+01     1.080308509096000E+01
             1.093596303758000E+01     1.107047538294000E+01     1.120664223015000E+01     1.134448392958000E+01
             1.148402108191000E+01     1.162527454122000E+01     1.176826541808000E+01     1.191301508272000E+01
             1.205954516824000E+01     1.220787757381000E+01     1.235803446796000E+01     1.251003829192000E+01
             1.266391176291000E+01     1.281967787759000E+01     1.297735991549000E+01     1.313698144245000E+01
             1.329856631419000E+01     1.346213867986000E+01     1.362772298562000E+01     1.379534397834000E+01
             1.396502670927000E+01     1.413679653780000E+01     1.431067913521000E+01     1.448670048858000E+01
             1.466488690459000E+01     1.484526501351000E+01     1.502786177318000E+01     1.521270447299000E+01
             1.539982073801000E+01     1.558923853309000E+01     1.578098616704000E+01     1.597509229690000E+01
             1.617158593215000E+01     1.637049643911000E+01     1.657185354532000E+01     1.677568734392000E+01
             1.698202829825000E+01     1.719090724632000E+01     1.740235540545000E+01     1.761640437694000E+01
             1.783308615077000E+01     1.805243311043000E+01     1.827447803769000E+01     1.849925411755000E+01
             1.872679494320000E+01     1.895713452100000E+01     1.919030727561000E+01     1.942634805510000E+01
             1.966529213617000E+01     1.990717522945000E+01     2.015203348477000E+01     2.039990349663000E+01
             2.065082230964000E+01     2.090482742405000E+01     2.116195680137000E+01     2.142224887002000E+01
             2.168574253113000E+01     2.195247716426000E+01     2.222249263338000E+01     2.249582929277000E+01
             2.277252799307000E+01     2.305263008738000E+01     2.333617743746000E+01     2.362321241994000E+01
             2.391377793270000E+01     2.420791740128000E+01     2.450567478531000E+01     2.480709458517000E+01
             2.511222184857000E+01     2.542110217731000E+01     2.573378173409000E+01     2.605030724942000E+01
             2.637072602859000E+01     2.669508595874000E+01     2.702343551603000E+01     2.735582377288000E+01
             2.769230040528000E+01     2.803291570027000E+01     2.837772056338000E+01     2.872676652631000E+01