<UPF version="2.0.1">
  <PP_INFO>
    local psp - psp6 format
    78.000    18.000   20210830  zatom,zion,pspd
    6  11  0  0    1129 0  pspcode,pspxc,lmax,lloc,mmax,r2well
    0   0   0    rchrg,fchrg,qchrg
    5---- no use
    6---- no use
    7---- no use
    1.8000E+01  1    zion   lmax+1
    0.0000    0.0000    0.0000   0.0000
    0.0000    0.0000    0.0000
    0.0000    0.0000    0.0000
    0.0000    0.0000    0.0000
    0.0000    0.0000    0.0000
    0.0000    0.0000    0.0000
    0.0000    0.0000    0.0000
    0.0000    0.0000    0.0000
    0.0000    0.0000    0.0000
    0.0000    0.0000    0.0000
    md5 1aa31f790c4a64781a82a093356caf86 pt_lps.cpi
  </PP_INFO>
  <!--                               -->
  <!-- END OF HUMAN READABLE SECTION -->
  <!--                               -->
  <PP_HEADER
            generated="DFTpy"
            author="shaoxc"
            date="Wed Apr 17 11:13:34 2024"
            comment=""
            element="Pt"
            pseudo_type="NC"
            relativistic="nonrelativistic"
            is_ultrasoft="F"
            is_paw="F"
            is_coulomb="F"
            has_so="F"
            has_wfc="F"
            has_gipaw="F"
            paw_as_gipaw="F"
            core_correction="F"
            functional="pbe"
            z_valence="18.0"
            total_psenergy="0.0"
            wfc_cutoff="0.0"
            rho_cutoff="0.0"
            l_max="1"
            l_max_rho="0"
            l_local="-1"
            mesh_size="1129"
            number_of_wfc="0"
            number_of_proj="1"/>
  <PP_MESH>
    <PP_R type="real" size="1129" columns="4">
             8.012820512820999E-05     8.111378205128000E-05     8.211148157051000E-05     8.312145279383000E-05
             8.414384666318999E-05     8.517881597715000E-05     8.622651541367001E-05     8.728710155326000E-05
             8.836073290236000E-05     8.944756991706000E-05     9.054777502703999E-05     9.166151265988000E-05
             9.278894926559000E-05     9.393025334156000E-05     9.508559545766000E-05     9.625514828179000E-05
             9.743908660565001E-05     9.863758737090000E-05     9.985082969556999E-05     1.010789949008000E-04
             1.023222665381000E-04     1.035808304165000E-04     1.048548746306000E-04     1.061445895886000E-04
             1.074501680405000E-04     1.087718051074000E-04     1.101096983103000E-04     1.114640475995000E-04
             1.128350553850000E-04     1.142229265662000E-04     1.156278685630000E-04     1.170500913463000E-04
             1.184898074698000E-04     1.199472321017000E-04     1.214225830566000E-04     1.229160808282000E-04
             1.244279486224000E-04     1.259584123904000E-04     1.275077008628000E-04     1.290760455834000E-04
             1.306636809441000E-04     1.322708442197000E-04     1.338977756036000E-04     1.355447182435000E-04
             1.372119182779000E-04     1.388996248727000E-04     1.406080902587000E-04     1.423375697689000E-04
             1.440883218770000E-04     1.458606082361000E-04     1.476546937174000E-04     1.494708464501000E-04
             1.513093378615000E-04     1.531704427172000E-04     1.550544391626000E-04     1.569616087643000E-04
             1.588922365521000E-04     1.608466110617000E-04     1.628250243777000E-04     1.648277721776000E-04
             1.668551537754000E-04     1.689074721668000E-04     1.709850340745000E-04     1.730881499936000E-04
             1.752171342385000E-04     1.773723049896000E-04     1.795539843410000E-04     1.817624983484000E-04
             1.839981770781000E-04     1.862613546561000E-04     1.885523693184000E-04     1.908715634610000E-04
             1.932192836916000E-04     1.955958808810000E-04     1.980017102158000E-04     2.004371312515000E-04
             2.029025079659000E-04     2.053982088139000E-04     2.079246067823000E-04     2.104820794457000E-04
             2.130710090229000E-04     2.156917824339000E-04     2.183447913578000E-04     2.210304322915000E-04
             2.237491066087000E-04     2.265012206200000E-04     2.292871856336000E-04     2.321074180169000E-04
             2.349623392585000E-04     2.378523760314000E-04     2.407779602566000E-04     2.437395291677000E-04
             2.467375253765000E-04     2.497723969386000E-04     2.528445974210000E-04     2.559545859692000E-04
             2.591028273767000E-04     2.622897921534000E-04     2.655159565969000E-04     2.687818028630000E-04
             2.720878190382000E-04     2.754344992124000E-04     2.788223435527000E-04     2.822518583784000E-04
             2.857235562365000E-04     2.892379559782000E-04     2.927955828367000E-04     2.963969685056000E-04
             3.000426512182000E-04     3.037331758282000E-04     3.074690938909000E-04     3.112509637457000E-04
             3.150793505998000E-04     3.189548266122000E-04     3.228779709795000E-04     3.268493700226000E-04
             3.308696172739000E-04     3.349393135663000E-04     3.390590671232000E-04     3.432294936488000E-04
             3.474512164207000E-04     3.517248663827000E-04     3.560510822392000E-04     3.604305105507000E-04
             3.648638058305000E-04     3.693516306422000E-04     3.738946556991000E-04     3.784935599642000E-04
             3.831490307517000E-04     3.878617638300000E-04     3.926324635251000E-04     3.974618428265000E-04
             4.023506234932000E-04     4.072995361622000E-04     4.123093204570000E-04     4.173807250986000E-04
             4.225145080173000E-04     4.277114364659000E-04     4.329722871345000E-04     4.382978462662000E-04
             4.436889097753000E-04     4.491462833655000E-04     4.546707826509000E-04     4.602632332775000E-04
             4.659244710469000E-04     4.716553420407000E-04     4.774567027478000E-04     4.833294201916000E-04
             4.892743720600000E-04     4.952924468363000E-04     5.013845439324000E-04     5.075515738228000E-04
             5.137944581808000E-04     5.201141300164000E-04     5.265115338156000E-04     5.329876256816000E-04
             5.395433734774000E-04     5.461797569712000E-04     5.528977679820000E-04     5.596984105281000E-04
             5.665827009776000E-04     5.735516681997001E-04     5.806063537185000E-04     5.877478118693000E-04
             5.949771099552000E-04     6.022953284077000E-04     6.097035609471000E-04     6.172029147468000E-04
             6.247945105981000E-04     6.324794830785000E-04     6.402589807204000E-04     6.481341661832000E-04
             6.561062164273000E-04     6.641763228893000E-04     6.723456916609000E-04     6.806155436683000E-04
             6.889871148554000E-04     6.974616563681000E-04     7.060404347415000E-04     7.147247320888000E-04
             7.235158462935000E-04     7.324150912029000E-04     7.414237968247000E-04     7.505433095256000E-04
             7.597749922328000E-04     7.691202246373000E-04     7.785804034003000E-04     7.881569423621000E-04
             7.978512727532000E-04     8.076648434081000E-04     8.175991209820000E-04     8.276555901699999E-04
             8.378357539291000E-04     8.481411337025000E-04     8.585732696470000E-04     8.691337208637000E-04
             8.798240656303000E-04     8.906459016375000E-04     9.016008462277000E-04     9.126905366363000E-04
             9.239166302369000E-04     9.352808047888000E-04     9.467847586877000E-04     9.584302112196000E-04
             9.702189028176000E-04     9.821525953222000E-04     9.942330722447000E-04     1.006462139033000E-03
             1.018841623343000E-03     1.031373375311000E-03     1.044059267827000E-03     1.056901196821000E-03
             1.069901081542000E-03     1.083060864845000E-03     1.096382513483000E-03     1.109868018398000E-03
             1.123519395025000E-03     1.137338683584000E-03     1.151327949392000E-03     1.165489283169000E-03
             1.179824801352000E-03     1.194336646409000E-03     1.209026987160000E-03     1.223898019102000E-03
             1.238951964737000E-03     1.254191073903000E-03     1.269617624112000E-03     1.285233920888000E-03
             1.301042298115000E-03     1.317045118382000E-03     1.333244773338000E-03     1.349643684050000E-03
             1.366244301364000E-03     1.383049106271000E-03     1.400060610278000E-03     1.417281355785000E-03
             1.434713916461000E-03     1.452360897633000E-03     1.470224936674000E-03     1.488308703395000E-03
             1.506614900447000E-03     1.525146263722000E-03     1.543905562766000E-03     1.562895601188000E-03
             1.582119217083000E-03     1.601579283453000E-03     1.621278708639000E-03     1.641220436756000E-03
             1.661407448128000E-03     1.681842759740000E-03     1.702529425684000E-03     1.723470537620000E-03
             1.744669225233000E-03     1.766128656704000E-03     1.787852039181000E-03     1.809842619263000E-03
             1.832103683480000E-03     1.854638558787000E-03     1.877450613060000E-03     1.900543255600000E-03
             1.923919937644000E-03     1.947584152877000E-03     1.971539437958000E-03     1.995789373044000E-03
             2.020337582333000E-03     2.045187734596000E-03     2.070343543731000E-03     2.095808769319000E-03
             2.121587217182000E-03     2.147682739953000E-03     2.174099237654000E-03     2.200840658278000E-03
             2.227910998374000E-03     2.255314303654000E-03     2.283054669589000E-03     2.311136242025000E-03
             2.339563217802000E-03     2.368339845381000E-03     2.397470425479000E-03     2.426959311713000E-03
             2.456810911247000E-03     2.487029685455000E-03     2.517620150586000E-03     2.548586878439000E-03
             2.579934497043000E-03     2.611667691357000E-03     2.643791203961000E-03     2.676309835769000E-03
             2.709228446749000E-03     2.742551956644000E-03     2.776285345711000E-03     2.810433655463000E-03
             2.845001989425000E-03     2.879995513895000E-03     2.915419458716000E-03     2.951279118058000E-03
             2.987579851211000E-03     3.024327083380000E-03     3.061526306506000E-03     3.099183080076000E-03
             3.137303031961000E-03     3.175891859254000E-03     3.214955329123000E-03     3.254499279671000E-03
             3.294529620811000E-03     3.335052335147000E-03     3.376073478869000E-03     3.417599182659000E-03
             3.459635652606000E-03     3.502189171133000E-03     3.545266097938000E-03     3.588872870943000E-03
             3.633016007256000E-03     3.677702104145000E-03     3.722937840026000E-03     3.768729975458000E-03
             3.815085354156000E-03     3.862010904012000E-03     3.909513638132000E-03     3.957600655881000E-03
             4.006279143948000E-03     4.055556377419000E-03     4.105439720861000E-03     4.155936629427000E-03
             4.207054649969000E-03     4.258801422164000E-03     4.311184679657000E-03     4.364212251216000E-03
             4.417892061906000E-03     4.472232134268000E-03     4.527240589519000E-03     4.582925648770000E-03
             4.639295634250000E-03     4.696358970551000E-03     4.754124185889000E-03     4.812599913376000E-03
             4.871794892310000E-03     4.931717969486000E-03     4.992378100510000E-03     5.053784351147000E-03
             5.115945898666000E-03     5.178872033219000E-03     5.242572159228000E-03     5.307055796786000E-03
             5.372332583087000E-03     5.438412273859000E-03     5.505304744827000E-03     5.573019993189000E-03
             5.641568139105000E-03     5.710959427216000E-03     5.781204228171000E-03     5.852313040177000E-03
             5.924296490571000E-03     5.997165337405000E-03     6.070930471055000E-03     6.145602915849000E-03
             6.221193831714000E-03     6.297714515844000E-03     6.375176404389000E-03     6.453591074163000E-03
             6.532970244375000E-03     6.613325778381000E-03     6.694669685455000E-03     6.777014122586000E-03
             6.860371396294000E-03     6.944753964469000E-03     7.030174438232000E-03     7.116645583822000E-03
             7.204180324503000E-03     7.292791742494000E-03     7.382493080927000E-03     7.473297745822000E-03
             7.565219308096000E-03     7.658271505586000E-03     7.752468245104000E-03     7.847823604518999E-03
             7.944351834855000E-03     8.042067362423000E-03     8.140984790981000E-03     8.241118903909999E-03
             8.342484666428000E-03     8.445097227826000E-03     8.548971923727999E-03     8.654124278389999E-03
             8.760570007013999E-03     8.868325018100000E-03     8.977405415823000E-03     9.087827502437000E-03
             9.199607780717000E-03     9.312762956419999E-03     9.427309940783999E-03     9.543265853056000E-03
             9.660648023048000E-03     9.779473993732000E-03     9.899761523854999E-03     1.002152859060000E-02
             1.014479339226000E-02     1.026957435099000E-02     1.039589011550000E-02     1.052375956392000E-02
             1.065320180656000E-02     1.078423618878000E-02     1.091688229390000E-02     1.105115994612000E-02
             1.118708921346000E-02     1.132469041078000E-02     1.146398410283000E-02     1.160499110730000E-02
             1.174773249792000E-02     1.189222960764000E-02     1.203850403182000E-02     1.218657763141000E-02
             1.233647253627000E-02     1.248821114847000E-02     1.264181614560000E-02     1.279731048419000E-02
             1.295471740314000E-02     1.311406042720000E-02     1.327536337046000E-02     1.343865033991000E-02
             1.360394573909000E-02     1.377127427169000E-02     1.394066094523000E-02     1.411213107485000E-02
             1.428571028707000E-02     1.446142452361000E-02     1.463930004525000E-02     1.481936343580000E-02
             1.500164160606000E-02     1.518616179782000E-02     1.537295158793000E-02     1.556203889246000E-02
             1.575345197084000E-02     1.594721943008000E-02     1.614337022907000E-02     1.634193368289000E-02
             1.654293946719000E-02     1.674641762263000E-02     1.695239855939000E-02     1.716091306167000E-02
             1.737199229233000E-02     1.758566779753000E-02     1.780197151144000E-02     1.802093576103000E-02
             1.824259327089000E-02     1.846697716812000E-02     1.869412098729000E-02     1.892405867543000E-02
             1.915682459714000E-02     1.939245353968000E-02     1.963098071822000E-02     1.987244178106000E-02
             2.011687281496000E-02     2.036431035059000E-02     2.061479136790000E-02     2.086835330172000E-02
             2.112503404734000E-02     2.138487196612000E-02     2.164790589130000E-02     2.191417513377000E-02
             2.218371948791000E-02     2.245657923761000E-02     2.273279516223000E-02     2.301240854273000E-02
             2.329546116780000E-02     2.358199534017000E-02     2.387205388285000E-02     2.416568014561000E-02
             2.446291801140000E-02     2.476381190294000E-02     2.506840678935000E-02     2.537674819286000E-02
             2.568888219563000E-02     2.600485544664000E-02     2.632471516863000E-02     2.664850916520000E-02
             2.697628582794000E-02     2.730809414362000E-02     2.764398370159000E-02     2.798400470112000E-02
             2.832820795894000E-02     2.867664491684000E-02     2.902936764931000E-02     2.938642887140000E-02
             2.974788194652000E-02     3.011378089446000E-02     3.048418039946000E-02     3.085913581837000E-02
             3.123870318894000E-02     3.162293923816000E-02     3.201190139079000E-02     3.240564777790000E-02
             3.280423724557000E-02     3.320772936369000E-02     3.361618443486000E-02     3.402966350341000E-02
             3.444822836450000E-02     3.487194157339000E-02     3.530086645474000E-02     3.573506711213000E-02
             3.617460843761000E-02     3.661955612140000E-02     3.706997666169000E-02     3.752593737463000E-02
             3.798750640433000E-02     3.845475273311000E-02     3.892774619173000E-02     3.940655746988000E-02
             3.989125812676000E-02     4.038192060172000E-02     4.087861822512000E-02     4.138142522929000E-02
             4.189041675961000E-02     4.240566888576000E-02     4.292725861305000E-02     4.345526389399000E-02
             4.398976363989000E-02     4.453083773266000E-02     4.507856703677000E-02     4.563303341132000E-02
             4.619431972228000E-02     4.676250985486000E-02     4.733768872608000E-02     4.791994229741000E-02
             4.850935758767000E-02     4.910602268600000E-02     4.971002676503000E-02     5.032146009424000E-02
             5.094041405340000E-02     5.156698114626000E-02     5.220125501436000E-02     5.284333045104000E-02
             5.349330341558000E-02     5.415127104760000E-02     5.481733168148000E-02     5.549158486116000E-02
             5.617413135496000E-02     5.686507317062000E-02     5.756451357062000E-02     5.827255708754000E-02
             5.898930953972000E-02     5.971487804705000E-02     6.044937104703000E-02     6.119289831091000E-02
             6.194557096014000E-02     6.270750148295000E-02     6.347880375119000E-02     6.425959303732000E-02
             6.504998603168000E-02     6.585010085987000E-02     6.666005710045000E-02     6.747997580279000E-02
             6.830997950516000E-02     6.915019225306999E-02     7.000073961779001E-02     7.086174871508000E-02
             7.173334822428000E-02     7.261566840744001E-02     7.350884112885001E-02     7.441299987474000E-02
             7.532827977320000E-02     7.625481761441000E-02     7.719275187106001E-02     7.814222271908000E-02
             7.910337205852000E-02     8.007634353484000E-02     8.106128256032000E-02     8.205833633581000E-02
             8.306765387274000E-02     8.408938601538000E-02     8.512368546337000E-02     8.617070679456000E-02
             8.723060648814000E-02     8.830354294794000E-02     8.938967652620000E-02     9.048916954746999E-02
             9.160218633290999E-02     9.272889322480000E-02     9.386945861147000E-02     9.502405295239000E-02
             9.619284880370001E-02     9.737602084399000E-02     9.857374590037001E-02     9.978620297495000E-02
             1.010135732715000E-01     1.022560402228000E-01     1.035137895175000E-01     1.047870091286000E-01
             1.060758893409000E-01     1.073806227798000E-01     1.087014044399000E-01     1.100384317146000E-01
             1.113919044246000E-01     1.127620248491000E-01     1.141489977547000E-01     1.155530304271000E-01
             1.169743327014000E-01     1.184131169936000E-01     1.198695983326000E-01     1.213439943921000E-01
             1.228365255231000E-01     1.243474147870000E-01     1.258768879889000E-01     1.274251737112000E-01
             1.289925033478000E-01     1.305791111390000E-01     1.321852342060000E-01     1.338111125868000E-01
             1.354569892716000E-01     1.371231102396000E-01     1.388097244956000E-01     1.405170841069000E-01
             1.422454442414000E-01     1.439950632055000E-01     1.457662024830000E-01     1.475591267735000E-01
             1.493741040328000E-01     1.512114055124000E-01     1.530713058002000E-01     1.549540828616000E-01
             1.568600180808000E-01     1.587893963032000E-01     1.607425058777000E-01     1.627196387000000E-01
             1.647210902560000E-01     1.667471596662000E-01     1.687981497300000E-01     1.708743669717000E-01
             1.729761216855000E-01     1.751037279822000E-01     1.772575038364000E-01     1.794377711336000E-01
             1.816448557185000E-01     1.838790874439000E-01     1.861408002194000E-01     1.884303320621000E-01
             1.907480251465000E-01     1.930942258558000E-01     1.954692848338000E-01     1.978735570373000E-01
             2.003074017888000E-01     2.027711828308000E-01     2.052652683796000E-01     2.077900311807000E-01
             2.103458485642000E-01     2.129331025016000E-01     2.155521796623000E-01     2.182034714722000E-01
             2.208873741713000E-01     2.236042888736000E-01     2.263546216267000E-01     2.291387834728000E-01
             2.319571905095000E-01     2.348102639527000E-01     2.376984301994000E-01     2.406221208908000E-01
             2.435817729778000E-01     2.465778287854000E-01     2.496107360795000E-01     2.526809481332000E-01
             2.557889237953000E-01     2.589351275580000E-01     2.621200296269000E-01     2.653441059913000E-01
             2.686078384950000E-01     2.719117149085000E-01     2.752562290019000E-01     2.786418806186000E-01
             2.820691757502000E-01     2.855386266120000E-01     2.890507517193000E-01     2.926060759654000E-01
             2.962051306998000E-01     2.998484538074000E-01     3.035365897892000E-01     3.072700898436000E-01
             3.110495119487000E-01     3.148754209457000E-01     3.187483886233000E-01     3.226689938034000E-01
             3.266378224272000E-01     3.306554676430000E-01     3.347225298950000E-01     3.388396170127000E-01
             3.430073443020000E-01     3.472263346369000E-01     3.514972185529000E-01     3.558206343412000E-01
             3.601972281435000E-01     3.646276540497000E-01     3.691125741945000E-01     3.736526588571000E-01
             3.782485865610000E-01     3.829010441757000E-01     3.876107270191000E-01     3.923783389615000E-01
             3.972045925307000E-01     4.020902090188000E-01     4.070359185897000E-01     4.120424603884000E-01
             4.171105826512000E-01     4.222410428178000E-01     4.274346076444000E-01     4.326920533185000E-01
             4.380141655743000E-01     4.434017398108000E-01     4.488555812105000E-01     4.543765048594000E-01
             4.599653358692000E-01     4.656229095004000E-01     4.713500712872000E-01     4.771476771640000E-01
             4.830165935932000E-01     4.889576976944000E-01     4.949718773760000E-01     5.010600314677000E-01
             5.072230698548000E-01     5.134619136140000E-01     5.197774951514000E-01     5.261707583418000E-01
             5.326426586694000E-01     5.391941633710000E-01     5.458262515805000E-01     5.525399144749999E-01
             5.593361554230000E-01     5.662159901347000E-01     5.731804468134000E-01     5.802305663092000E-01
             5.873674022748000E-01     5.945920213228000E-01     6.019055031850000E-01     6.093089408742000E-01
             6.168034408469000E-01     6.243901231694000E-01     6.320701216843000E-01     6.398445841811000E-01
             6.477146725664999E-01     6.556815630391000E-01     6.637464462644000E-01     6.719105275535000E-01
             6.801750270424000E-01     6.885411798750000E-01     6.970102363875000E-01     7.055834622950000E-01
             7.142621388813000E-01     7.230475631895000E-01     7.319410482167000E-01     7.409439231098000E-01
             7.500575333641000E-01     7.592832410244000E-01     7.686224248890000E-01     7.780764807152000E-01
             7.876468214280000E-01     7.973348773315000E-01     8.071420963227000E-01     8.170699441075000E-01
             8.271199044200001E-01     8.372934792444000E-01     8.475921890391001E-01     8.580175729643000E-01
             8.685711891116999E-01     8.792546147378000E-01     8.900694464991000E-01     9.010173006909999E-01
             9.120998134895000E-01     9.233186411954000E-01     9.346754604821000E-01     9.461719686461000E-01
             9.578098838604000E-01     9.695909454319001E-01     9.815169140607000E-01     9.935895721036000E-01
             1.005810723841000E+00     1.018182195744000E+00     1.030705836751000E+00     1.043383518544000E+00
             1.056217135822000E+00     1.069208606592000E+00     1.082359872453000E+00     1.095672898884000E+00
             1.109149675541000E+00     1.122792216550000E+00     1.136602560813000E+00     1.150582772311000E+00
             1.164734940411000E+00     1.179061180178000E+00     1.193563632694000E+00     1.208244465376000E+00
             1.223105872300000E+00     1.238150074530000E+00     1.253379320446000E+00     1.268795886088000E+00
             1.284402075487000E+00     1.300200221015000E+00     1.316192683734000E+00     1.332381853744000E+00
             1.348770150545000E+00     1.365360023396000E+00     1.382153951684000E+00     1.399154445290000E+00
             1.416364044967000E+00     1.433785322720000E+00     1.451420882190000E+00     1.469273359040000E+00
             1.487345421357000E+00     1.505639770039000E+00     1.524159139211000E+00     1.542906296623000E+00
             1.561884044072000E+00     1.581095217814000E+00     1.600542688993000E+00     1.620229364067000E+00
             1.640158185245000E+00     1.660332130924000E+00     1.680754216134000E+00     1.701427492993000E+00
             1.722355051157000E+00     1.743540018286000E+00     1.764985560511000E+00     1.786694882905000E+00
             1.808671229965000E+00     1.830917886093000E+00     1.853438176092000E+00     1.876235465658000E+00
             1.899313161886000E+00     1.922674713777000E+00     1.946323612756000E+00     1.970263393193000E+00
             1.994497632930000E+00     2.019029953815000E+00     2.043864022246000E+00     2.069003549720000E+00
             2.094452293382000E+00     2.120214056590000E+00     2.146292689486000E+00     2.172692089567000E+00
             2.199416202269000E+00     2.226469021556000E+00     2.253854590522000E+00     2.281577001985000E+00
             2.309640399110000E+00     2.338048976019000E+00     2.366806978424000E+00     2.395918704258000E+00
             2.425388504321000E+00     2.455220782924000E+00     2.485419998554000E+00     2.515990664536000E+00
             2.546937349710000E+00     2.578264679111000E+00     2.609977334664000E+00     2.642080055881000E+00
             2.674577640568000E+00     2.707474945547000E+00     2.740776887377000E+00     2.774488443092000E+00
             2.808614650942000E+00     2.843160611148000E+00     2.878131486666000E+00     2.913532503952000E+00
             2.949368953750000E+00     2.985646191881000E+00     3.022369640041000E+00     3.059544786614000E+00
             3.097177187489000E+00     3.135272466895000E+00     3.173836318238000E+00     3.212874504953000E+00
             3.252392861364000E+00     3.292397293558000E+00     3.332893780269000E+00     3.373888373766000E+00
             3.415387200764000E+00     3.457396463333000E+00     3.499922439832000E+00     3.542971485842000E+00
             3.586550035118000E+00     3.630664600550000E+00     3.675321775137000E+00     3.720528232971000E+00
             3.766290730236000E+00     3.812616106218000E+00     3.859511284325000E+00     3.906983273122000E+00
             3.955039167381000E+00     4.003686149140000E+00     4.052931488775000E+00     4.102782546086000E+00
             4.153246771403000E+00     4.204331706691000E+00     4.256044986684000E+00     4.308394340020000E+00
             4.361387590402000E+00     4.415032657764000E+00     4.469337559455000E+00     4.524310411436000E+00
             4.579959429497000E+00     4.636292930479000E+00     4.693319333524000E+00     4.751047161327000E+00
             4.809485041411000E+00     4.868641707420000E+00     4.928526000422000E+00     4.989146870227000E+00
             5.050513376731000E+00     5.112634691264000E+00     5.175520097967000E+00     5.239178995172000E+00
             5.303620896813000E+00     5.368855433843000E+00     5.434892355680000E+00     5.501741531654000E+00
             5.569412952494000E+00     5.637916731809000E+00     5.707263107611000E+00     5.777462443834000E+00
             5.848525231894000E+00     5.920462092246000E+00     5.993283775981000E+00     6.067001166425000E+00
             6.141625280772000E+00     6.217167271726000E+00     6.293638429168000E+00     6.371050181847000E+00
             6.449414099083000E+00     6.528741892502000E+00     6.609045417780000E+00     6.690336676419000E+00
             6.772627817538000E+00     6.855931139694000E+00     6.940259092712000E+00     7.025624279553000E+00
             7.112039458191000E+00     7.199517543527000E+00     7.288071609312000E+00     7.377714890107000E+00
             7.468460783255000E+00     7.560322850889000E+00     7.653314821955000E+00     7.747450594265000E+00
             7.842744236575000E+00     7.939209990685000E+00     8.036862273570000E+00     8.135715679535000E+00
             8.235784982393000E+00     8.337085137677001E+00     8.439631284870000E+00     8.543438749673999E+00
             8.648523046295001E+00     8.754899879764000E+00     8.862585148286000E+00     8.971594945609001E+00
             9.081945563440000E+00     9.193653493871000E+00     9.306735431845000E+00     9.421208277657000E+00
             9.537089139472000E+00     9.654395335887999E+00     9.773144398518999E+00     9.893354074621000E+00
             1.001504232974000E+01     1.013822735040000E+01     1.026292754680000E+01     1.038916155563000E+01
             1.051694824276000E+01     1.064630670615000E+01     1.077725627864000E+01     1.090981653086000E+01
             1.104400727419000E+01     1.117984856367000E+01     1.131736070100000E+01     1.145656423762000E+01
             1.159747997774000E+01     1.174012898147000E+01     1.188453256794000E+01     1.203071231853000E+01
             1.217869008004000E+01     1.232848796803000E+01     1.248012837004000E+01     1.263363394899000E+01
             1.278902764656000E+01     1.294633268661000E+01     1.310557257866000E+01     1.326677112138000E+01
             1.342995240617000E+01     1.359514082076000E+01     1.376236105286000E+01     1.393163809381000E+01
             1.410299724236000E+01     1.427646410845000E+01     1.445206461698000E+01     1.462982501177000E+01
             1.480977185941000E+01     1.499193205328000E+01     1.517633281754000E+01     1.536300171120000E+01
             1.555196663224000E+01     1.574325582182000E+01     1.593689786843000E+01     1.613292171221000E+01
             1.633135664927000E+01     1.653223233605000E+01     1.673557879379000E+01     1.694142641295000E+01