<UPF version="2.0.1">
  <PP_INFO>
    local psp - psp6 format
    22.000    12.000   20210830  zatom,zion,pspd
    6  11  0  0    1027 0  pspcode,pspxc,lmax,lloc,mmax,r2well
    0   0   0    rchrg,fchrg,qchrg
    5---- no use
    6---- no use
    7---- no use
    1.2000E+01  1    zion   lmax+1
    0.0000    0.0000    0.0000   0.0000
    0.0000    0.0000    0.0000
    0.0000    0.0000    0.0000
    0.0000    0.0000    0.0000
    0.0000    0.0000    0.0000
    0.0000    0.0000    0.0000
    0.0000    0.0000    0.0000
    0.0000    0.0000    0.0000
    0.0000    0.0000    0.0000
    0.0000    0.0000    0.0000
    md5 a3cffd111f7f32d61a78d9f1fcb3a67b ti_lps_fitmag.cpi
  </PP_INFO>
  <!--                               -->
  <!-- END OF HUMAN READABLE SECTION -->
  <!--                               -->
  <PP_HEADER
            generated="DFTpy"
            author="shaoxc"
            date="Wed Apr 17 11:14:52 2024"
            comment=""
            element="Ti"
            pseudo_type="NC"
            relativistic="nonrelativistic"
            is_ultrasoft="F"
            is_paw="F"
            is_coulomb="F"
            has_so="F"
            has_wfc="F"
            has_gipaw="F"
            paw_as_gipaw="F"
            core_correction="F"
            functional="pbe"
            z_valence="12.0"
            total_psenergy="0.0"
            wfc_cutoff="0.0"
            rho_cutoff="0.0"
            l_max="1"
            l_max_rho="0"
            l_local="-1"
            mesh_size="1027"
            number_of_wfc="0"
            number_of_proj="1"/>
  <PP_MESH>
    <PP_R type="real" size="1027" columns="4">
             2.840909090909000E-04     2.875852272727000E-04     2.911225255682000E-04     2.947033326327000E-04
             2.983281836240000E-04     3.019976202826000E-04     3.057121910121000E-04     3.094724509615000E-04
             3.132789621084000E-04     3.171322933423000E-04     3.210330205504000E-04     3.249817267032000E-04
             3.289790019416000E-04     3.330254436655000E-04     3.371216566226000E-04     3.412682529991000E-04
             3.454658525110000E-04     3.497150824968000E-04     3.540165780115000E-04     3.583709819211000E-04
             3.627789449987000E-04     3.672411260222000E-04     3.717581918723000E-04     3.763308176323000E-04
             3.809596866892000E-04     3.856454908355000E-04     3.903889303727000E-04     3.951907142163000E-04
             4.000515600012000E-04     4.049721941892000E-04     4.099533521777000E-04     4.149957784095000E-04
             4.201002264839000E-04     4.252674592697000E-04     4.304982490187000E-04     4.357933774817000E-04
             4.411536360247000E-04     4.465798257478000E-04     4.520727576045000E-04     4.576332525230000E-04
             4.632621415291000E-04     4.689602658698000E-04     4.747284771401000E-04     4.805676374089000E-04
             4.864786193490000E-04     4.924623063670000E-04     4.985195927353000E-04     5.046513837260000E-04
             5.108585957458000E-04     5.171421564735000E-04     5.235030049980999E-04     5.299420919596000E-04
             5.364603796907000E-04     5.430588423609000E-04     5.497384661219000E-04     5.565002492552000E-04
             5.633452023210000E-04     5.702743483096000E-04     5.772887227938000E-04     5.843893740841000E-04
             5.915773633854000E-04     5.988537649550001E-04     6.062196662640000E-04     6.136761681590000E-04
             6.212243850274000E-04     6.288654449632000E-04     6.366004899363000E-04     6.444306759625000E-04
             6.523571732768000E-04     6.603811665081000E-04     6.685038548562000E-04     6.767264522709000E-04
             6.850501876338000E-04     6.934763049417000E-04     7.020060634925000E-04     7.106407380735000E-04
             7.193816191518000E-04     7.282300130673000E-04     7.371872422281000E-04     7.462546453075001E-04
             7.554335774448000E-04     7.647254104473000E-04     7.741315329958000E-04     7.836533508516999E-04
             7.932922870672000E-04     8.030497821981000E-04     8.129272945191000E-04     8.229263002417000E-04
             8.330482937347001E-04     8.432947877476000E-04     8.536673136369000E-04     8.641674215946000E-04
             8.747966808803000E-04     8.855566800551000E-04     8.964490272198000E-04     9.074753502546000E-04
             9.186372970627000E-04     9.299365358166000E-04     9.413747552071000E-04     9.529536646962000E-04
             9.646749947719001E-04     9.765404972076000E-04     9.885519453232999E-04     1.000711134251000E-03
             1.013019881202000E-03     1.025480025741000E-03     1.038093430057000E-03     1.050861979247000E-03
             1.063787581592000E-03     1.076872168846000E-03     1.090117696522000E-03     1.103526144190000E-03
             1.117099515763000E-03     1.130839839807000E-03     1.144749169836000E-03     1.158829584626000E-03
             1.173083188516000E-03     1.187512111735000E-03     1.202118510709000E-03     1.216904568391000E-03
             1.231872494582000E-03     1.247024526266000E-03     1.262362927939000E-03     1.277889991952000E-03
             1.293608038853000E-03     1.309519417731000E-03     1.325626506569000E-03     1.341931712600000E-03
             1.358437472665000E-03     1.375146253579000E-03     1.392060552498000E-03     1.409182897294000E-03
             1.426515846931000E-03     1.444061991848000E-03     1.461823954348000E-03     1.479804388986000E-03
             1.498005982971000E-03     1.516431456561000E-03     1.535083563477000E-03     1.553965091308000E-03
             1.573078861931000E-03     1.592427731932000E-03     1.612014593035000E-03     1.631842372529000E-03
             1.651914033712000E-03     1.672232576326000E-03     1.692801037015000E-03     1.713622489770000E-03
             1.734700046395000E-03     1.756036856965000E-03     1.777636110306000E-03     1.799501034463000E-03
             1.821634897186000E-03     1.844041006422000E-03     1.866722710801000E-03     1.889683400144000E-03
             1.912926505966000E-03     1.936455501989000E-03     1.960273904663000E-03     1.984385273691000E-03
             2.008793212557000E-03     2.033501369071000E-03     2.058513435911000E-03     2.083833151173000E-03
             2.109464298932000E-03     2.135410709809000E-03     2.161676261540000E-03     2.188264879557000E-03
             2.215180537575000E-03     2.242427258187000E-03     2.270009113463000E-03     2.297930225559000E-03
             2.326194767333000E-03     2.354806962971000E-03     2.383771088616000E-03     2.413091473006000E-03
             2.442772498124000E-03     2.472818599851000E-03     2.503234268629000E-03     2.534024050133000E-03
             2.565192545950000E-03     2.596744414265000E-03     2.628684370560000E-03     2.661017188318000E-03
             2.693747699735000E-03     2.726880796441000E-03     2.760421430237000E-03     2.794374613829000E-03
             2.828745421580000E-03     2.863538990265000E-03     2.898760519845000E-03     2.934415274239000E-03
             2.970508582112000E-03     3.007045837672000E-03     3.044032501476000E-03     3.081474101244000E-03
             3.119376232689000E-03     3.157744560351000E-03     3.196584818444000E-03     3.235902811710000E-03
             3.275704416295000E-03     3.315995580615000E-03     3.356782326257000E-03     3.398070748869000E-03
             3.439867019080000E-03     3.482177383415000E-03     3.525008165231000E-03     3.568365765664000E-03
             3.612256664581000E-03     3.656687421556000E-03     3.701664676841000E-03     3.747195152366000E-03
             3.793285652740000E-03     3.839943066269000E-03     3.887174365984000E-03     3.934986610685000E-03
             3.983386945997000E-03     4.032382605433000E-03     4.081980911479000E-03     4.132189276691000E-03
             4.183015204794000E-03     4.234466291813000E-03     4.286550227202000E-03     4.339274794997000E-03
             4.392647874975000E-03     4.446677443837000E-03     4.501371576396000E-03     4.556738446786000E-03
             4.612786329682000E-03     4.669523601537000E-03     4.726958741836000E-03     4.785100334360000E-03
             4.843957068473000E-03     4.903537740415000E-03     4.963851254622000E-03     5.024906625054000E-03
             5.086712976542000E-03     5.149279546154000E-03     5.212615684571000E-03     5.276730857492000E-03
             5.341634647039000E-03     5.407336753197000E-03     5.473846995262000E-03     5.541175313303000E-03
             5.609331769657000E-03     5.678326550424000E-03     5.748169966994000E-03     5.818872457588000E-03
             5.890444588816000E-03     5.962897057259000E-03     6.036240691063000E-03     6.110486451563000E-03
             6.185645434917000E-03     6.261728873767000E-03     6.338748138914000E-03     6.416714741023000E-03
             6.495640332337000E-03     6.575536708425000E-03     6.656415809939000E-03     6.738289724401000E-03
             6.821170688011000E-03     6.905071087474000E-03     6.990003461850000E-03     7.075980504430000E-03
             7.163015064635000E-03     7.251120149930000E-03     7.340308927774000E-03     7.430594727586000E-03
             7.521991042735000E-03     7.614511532561000E-03     7.708170024411000E-03     7.802980515711000E-03
             7.898957176055000E-03     7.996114349320000E-03     8.094466555817000E-03     8.194028494453000E-03
             8.294815044935001E-03     8.396841269987999E-03     8.500122417609000E-03     8.604673923345000E-03
             8.710511412602000E-03     8.817650702976999E-03     8.926107806623999E-03     9.035898932645000E-03
             9.147040489517000E-03     9.259549087538000E-03     9.373441541314999E-03     9.488734872273001E-03
             9.605446311202000E-03     9.723593300830001E-03     9.843193498430000E-03     9.964264778460999E-03
             1.008682523524000E-02     1.021089318563000E-02     1.033648717181000E-02     1.046362596403000E-02
             1.059232856338000E-02     1.072261420471000E-02     1.085450235943000E-02     1.098801273845000E-02
             1.112316529514000E-02     1.125998022826000E-02     1.139847798507000E-02     1.153867926429000E-02
             1.168060501924000E-02     1.182427646098000E-02     1.196971506145000E-02     1.211694255670000E-02
             1.226598095015000E-02     1.241685251584000E-02     1.256957980178000E-02     1.272418563334000E-02
             1.288069311663000E-02     1.303912564197000E-02     1.319950688736000E-02     1.336186082208000E-02
             1.352621171019000E-02     1.369258411422000E-02     1.386100289883000E-02     1.403149323449000E-02
             1.420408060127000E-02     1.437879079267000E-02     1.455564991942000E-02     1.473468441342000E-02
             1.491592103171000E-02     1.509938686040000E-02     1.528510931878000E-02     1.547311616340000E-02
             1.566343549221000E-02     1.585609574877000E-02     1.605112572648000E-02     1.624855457291000E-02
             1.644841179416000E-02     1.665072725923000E-02     1.685553120452000E-02     1.706285423833000E-02
             1.727272734546000E-02     1.748518189181000E-02     1.770024962908000E-02     1.791796269952000E-02
             1.813835364072000E-02     1.836145539050000E-02     1.858730129181000E-02     1.881592509770000E-02
             1.904736097640000E-02     1.928164351641000E-02     1.951880773166000E-02     1.975888906676000E-02
             2.000192340228000E-02     2.024794706013000E-02     2.049699680897000E-02     2.074910986972000E-02
             2.100432392112000E-02     2.126267710535000E-02     2.152420803374000E-02     2.178895579256000E-02
             2.205695994881000E-02     2.232826055618000E-02     2.260289816102000E-02     2.288091380840000E-02
             2.316234904824000E-02     2.344724594153000E-02     2.373564706662000E-02     2.402759552553000E-02
             2.432313495050000E-02     2.462230951039000E-02     2.492516391737000E-02     2.523174343355000E-02
             2.554209387778000E-02     2.585626163248000E-02     2.617429365056000E-02     2.649623746246000E-02
             2.682214118325000E-02     2.715205351980000E-02     2.748602377810000E-02     2.782410187057000E-02
             2.816633832358000E-02     2.851278428496000E-02     2.886349153166000E-02     2.921851247750000E-02
             2.957790018097000E-02     2.994170835320000E-02     3.030999136594000E-02     3.068280425975000E-02
             3.106020275214000E-02     3.144224324599000E-02     3.182898283792000E-02     3.222047932682000E-02
             3.261679122254000E-02     3.301797775458000E-02     3.342409888096000E-02     3.383521529720000E-02
             3.425138844535000E-02     3.467268052323000E-02     3.509915449367000E-02     3.553087409394000E-02
             3.596790384529000E-02     3.641030906259000E-02     3.685815586406000E-02     3.731151118119000E-02
             3.777044276872000E-02     3.823501921477000E-02     3.870530995111000E-02     3.918138526351000E-02
             3.966331630226000E-02     4.015117509277000E-02     4.064503454641000E-02     4.114496847133000E-02
             4.165105158353000E-02     4.216335951801000E-02     4.268196884008000E-02     4.320695705681000E-02
             4.373840262861000E-02     4.427638498094000E-02     4.482098451621000E-02     4.537228262576000E-02
             4.593036170206000E-02     4.649530515099000E-02     4.706719740435000E-02     4.764612393242000E-02
             4.823217125679000E-02     4.882542696325000E-02     4.942597971490000E-02     5.003391926539000E-02
             5.064933647235000E-02     5.127232331096000E-02     5.190297288769000E-02     5.254137945421000E-02
             5.318763842150000E-02     5.384184637408000E-02     5.450410108448000E-02     5.517450152782000E-02
             5.585314789661000E-02     5.654014161574000E-02     5.723558535761000E-02     5.793958305751000E-02
             5.865223992912000E-02     5.937366248025000E-02     6.010395852875000E-02     6.084323721866000E-02
             6.159160903645000E-02     6.234918582760000E-02     6.311608081328000E-02     6.389240860728000E-02
             6.467828523315000E-02     6.547382814152000E-02     6.627915622765999E-02     6.709438984926000E-02
             6.791965084440001E-02     6.875506254979000E-02     6.960074981915000E-02     7.045683904192999E-02
             7.132345816214000E-02     7.220073669754000E-02     7.308880575892000E-02     7.398779806975000E-02
             7.489784798601000E-02     7.581909151624000E-02     7.675166634189000E-02     7.769571183788999E-02
             7.865136909350000E-02     7.961878093334999E-02     8.059809193883000E-02     8.158944846968000E-02
             8.259299868585000E-02     8.360889256968999E-02     8.463728194830000E-02     8.567832051626000E-02
             8.673216385861000E-02     8.779896947407000E-02     8.887889679860000E-02     8.997210722923001E-02
             9.107876414815000E-02     9.219903294717000E-02     9.333308105242000E-02     9.448107794936000E-02
             9.564319520814001E-02     9.681960650920000E-02     9.801048766926000E-02     9.921601666759000E-02
             1.004363736726000E-01     1.016717410688000E-01     1.029223034839000E-01     1.041882478168000E-01
             1.054697632649000E-01     1.067670413531000E-01     1.080802759617000E-01     1.094096633560000E-01
             1.107554022153000E-01     1.121176936626000E-01     1.134967412946000E-01     1.148927512126000E-01
             1.163059320525000E-01     1.177364950167000E-01     1.191846539054000E-01     1.206506251485000E-01
             1.221346278378000E-01     1.236368837602000E-01     1.251576174304000E-01     1.266970561248000E-01
             1.282554299152000E-01     1.298329717031000E-01     1.314299172551000E-01     1.330465052373000E-01
             1.346829772517000E-01     1.363395778719000E-01     1.380165546797000E-01     1.397141583023000E-01
             1.414326424494000E-01     1.431722639516000E-01     1.449332827982000E-01     1.467159621766000E-01
             1.485205685114000E-01     1.503473715040000E-01     1.521966441735000E-01     1.540686628969000E-01
             1.559637074505000E-01     1.578820610521000E-01     1.598240104031000E-01     1.617898457311000E-01
             1.637798608335000E-01     1.657943531218000E-01     1.678336236652000E-01     1.698979772363000E-01
             1.719877223563000E-01     1.741031713413000E-01     1.762446403488000E-01     1.784124494250000E-01
             1.806069225530000E-01     1.828283877004000E-01     1.850771768691000E-01     1.873536261446000E-01
             1.896580757462000E-01     1.919908700778000E-01     1.943523577798000E-01     1.967428917805000E-01
             1.991628293494000E-01     2.016125321504000E-01     2.040923662958000E-01     2.066027024013000E-01
             2.091439156408000E-01     2.117163858032000E-01     2.143204973486000E-01     2.169566394660000E-01
             2.196252061314000E-01     2.223265961668000E-01     2.250612132997000E-01     2.278294662232000E-01
             2.306317686578000E-01     2.334685394123000E-01     2.363402024471000E-01     2.392471869371000E-01
             2.421899273365000E-01     2.451688634427000E-01     2.481844404631000E-01     2.512371090808000E-01
             2.543273255225000E-01     2.574555516264000E-01     2.606222549114000E-01     2.638279086468000E-01
             2.670729919231000E-01     2.703579897238000E-01     2.736833929974000E-01     2.770496987313000E-01
             2.804574100257000E-01     2.839070361690000E-01     2.873990927139000E-01     2.909341015542000E-01
             2.945125910034000E-01     2.981350958727000E-01     3.018021575519000E-01     3.055143240898000E-01
             3.092721502761000E-01     3.130761977245000E-01     3.169270349565000E-01     3.208252374865000E-01
             3.247713879076000E-01     3.287660759788000E-01     3.328098987134000E-01     3.369034604676000E-01
             3.410473730313000E-01     3.452422557196000E-01     3.494887354650000E-01     3.537874469112000E-01
             3.581390325082000E-01     3.625441426080000E-01     3.670034355621000E-01     3.715175778195000E-01
             3.760872440267000E-01     3.807131171282000E-01     3.853958884689000E-01     3.901362578971000E-01
             3.949349338692000E-01     3.997926335558000E-01     4.047100829485000E-01     4.096880169688000E-01
             4.147271795775000E-01     4.198283238863000E-01     4.249922122701000E-01     4.302196164810000E-01
             4.355113177638000E-01     4.408681069722000E-01     4.462907846880000E-01     4.517801613397000E-01
             4.573370573241000E-01     4.629623031292000E-01     4.686567394577000E-01     4.744212173531000E-01
             4.802565983265000E-01     4.861637544859000E-01     4.921435686661000E-01     4.981969345607000E-01
             5.043247568558000E-01     5.105279513651000E-01     5.168074451669000E-01     5.231641767425000E-01
             5.295990961164000E-01     5.361131649986000E-01     5.427073569281000E-01     5.493826574182999E-01
             5.561400641046000E-01     5.629805868930000E-01     5.699052481118000E-01     5.769150826636000E-01
             5.840111381804000E-01     5.911944751800000E-01     5.984661672247000E-01     6.058273010816000E-01
             6.132789768849000E-01     6.208223083006000E-01     6.284584226926000E-01     6.361884612918000E-01
             6.440135793657000E-01     6.519349463919000E-01     6.599537462325000E-01     6.680711773111000E-01
             6.762884527921000E-01     6.846068007614000E-01     6.930274644108000E-01     7.015517022230000E-01
             7.101807881604000E-01     7.189160118547000E-01     7.277586788006000E-01     7.367101105498000E-01
             7.457716449096000E-01     7.549446361419000E-01     7.642304551665000E-01     7.736304897650000E-01
             7.831461447892000E-01     7.927788423701000E-01     8.025300221311999E-01     8.124011414034000E-01
             8.223936754427000E-01     8.325091176506000E-01     8.427489797977000E-01     8.531147922493000E-01
             8.636081041939000E-01     8.742304838755000E-01     8.849835188272001E-01     8.958688161087000E-01
             9.068880025469001E-01     9.180427249782001E-01     9.293346504954000E-01     9.407654666965000E-01
             9.523368819369000E-01     9.640506255847000E-01     9.759084482794000E-01     9.879121221932000E-01
             1.000063441296000E+00     1.012364221624000E+00     1.024816301550000E+00     1.037421542059000E+00
             1.050181827026000E+00     1.063099063499000E+00     1.076175181980000E+00     1.089412136718000E+00
             1.102811906000000E+00     1.116376492444000E+00     1.130107923301000E+00     1.144008250758000E+00
             1.158079552242000E+00     1.172323930734000E+00     1.186743515082000E+00     1.201340460318000E+00
             1.216116947980000E+00     1.231075186440000E+00     1.246217411233000E+00     1.261545885391000E+00
             1.277062899782000E+00     1.292770773449000E+00     1.308671853962000E+00     1.324768517766000E+00
             1.341063170535000E+00     1.357558247532000E+00     1.374256213977000E+00     1.391159565409000E+00
             1.408270828063000E+00     1.425592559248000E+00     1.443127347727000E+00     1.460877814104000E+00
             1.478846611218000E+00     1.497036424536000E+00     1.515449972557000E+00     1.534090007220000E+00
             1.552959314309000E+00     1.572060713875000E+00     1.591397060655000E+00     1.610971244502000E+00
             1.630786190809000E+00     1.650844860956000E+00     1.671150252746000E+00     1.691705400854000E+00
             1.712513377285000E+00     1.733577291825000E+00     1.754900292515000E+00     1.776485566113000E+00
             1.798336338576000E+00     1.820455875541000E+00     1.842847482810000E+00     1.865514506848000E+00
             1.888460335283000E+00     1.911688397406000E+00     1.935202164695000E+00     1.959005151320000E+00
             1.983100914681000E+00     2.007493055932000E+00     2.032185220520000E+00     2.057181098732000E+00
             2.082484426247000E+00     2.108098984690000E+00     2.134028602201000E+00     2.160277154008000E+00
             2.186848563003000E+00     2.213746800328000E+00     2.240975885972000E+00     2.268539889369000E+00
             2.296442930008000E+00     2.324689178048000E+00     2.353282854938000E+00     2.382228234053000E+00
             2.411529641332000E+00     2.441191455920000E+00     2.471218110828000E+00     2.501614093591000E+00
             2.532383946943000E+00     2.563532269490000E+00     2.595063716405000E+00     2.626983000117000E+00
             2.659294891018000E+00     2.692004218178000E+00     2.725115870061000E+00     2.758634795263000E+00
             2.792566003245000E+00     2.826914565085000E+00     2.861685614235000E+00     2.896884347290000E+00
             2.932516024762000E+00     2.968585971866000E+00     3.005099579320000E+00     3.042062304146000E+00
             3.079479670487000E+00     3.117357270434000E+00     3.155700764860000E+00     3.194515884268000E+00
             3.233808429645000E+00     3.273584273329000E+00     3.313849359891000E+00     3.354609707018000E+00
             3.395871406414000E+00     3.437640624713000E+00     3.479923604397000E+00     3.522726664731000E+00
             3.566056202707000E+00     3.609918694001000E+00     3.654320693937000E+00     3.699268838472000E+00
             3.744769845186000E+00     3.790830514281000E+00     3.837457729607000E+00     3.884658459681000E+00
             3.932439758735000E+00     3.980808767768000E+00     4.029772715611000E+00     4.079338920013000E+00
             4.129514788729000E+00     4.180307820631000E+00     4.231725606824000E+00     4.283775831788000E+00
             4.336466274519000E+00     4.389804809696000E+00     4.443799408855000E+00     4.498458141584000E+00
             4.553789176726000E+00     4.609800783599000E+00     4.666501333238000E+00     4.723899299636000E+00
             4.782003261022000E+00     4.840821901133000E+00     4.900364010517000E+00     4.960638487846000E+00
             5.021654341246000E+00     5.083420689644000E+00     5.145946764126000E+00     5.209241909325000E+00
             5.273315584810000E+00     5.338177366503000E+00     5.403836948111000E+00     5.470304142573000E+00
             5.537588883526000E+00     5.605701226794000E+00     5.674651351883000E+00     5.744449563511000E+00
             5.815106293143000E+00     5.886632100548000E+00     5.959037675385000E+00     6.032333838792000E+00
             6.106531545009000E+00     6.181641883013000E+00     6.257676078174000E+00     6.334645493936000E+00
             6.412561633511000E+00     6.491436141603000E+00     6.571280806145000E+00     6.652107560060000E+00
             6.733928483049000E+00     6.816755803391000E+00     6.900601899772000E+00     6.985479303140000E+00
             7.071400698568000E+00     7.158378927161000E+00     7.246426987965000E+00     7.335558039917000E+00
             7.425785403808000E+00     7.517122564274000E+00     7.609583171815000E+00     7.703181044828000E+00
             7.797930171680000E+00     7.893844712791000E+00     7.990939002759000E+00     8.089227552493000E+00
             8.188725051387999E+00     8.289446369520000E+00     8.391406559865001E+00     8.494620860552001E+00
             8.599104697136999E+00     8.704873684911000E+00     8.811943631236000E+00     8.920330537900000E+00
             9.030050603516001E+00     9.141120225939000E+00     9.253556004719000E+00     9.367374743576001E+00
             9.482593452923000E+00     9.599229352394000E+00     9.717299873428001E+00     9.836822661871000E+00
             9.957815580611999E+00     1.008029671225000E+01     1.020428436181000E+01     1.032979705946000E+01
             1.045685356330000E+01     1.058547286213000E+01     1.071567417833000E+01     1.084747697072000E+01
             1.098090093746000E+01     1.111596601899000E+01     1.125269240103000E+01     1.139110051756000E+01
             1.153121105393000E+01     1.167304494989000E+01     1.181662340277000E+01     1.196196787063000E+01
             1.210910007544000E+01     1.225804200636000E+01     1.240881592304000E+01     1.256144435889000E+01
             1.271595012451000E+01     1.287235631104000E+01     1.303068629367000E+01     1.319096373508000E+01
             1.335321258902000E+01     1.351745710386000E+01     1.368372182624000E+01     1.385203160470000E+01
             1.402241159344000E+01     1.419488725604000E+01     1.436948436929000E+01     1.454622902703000E+01
             1.472514764407000E+01     1.490626696009000E+01     1.508961404370000E+01     1.527521629643000E+01
             1.546310145688000E+01     1.565329760480000E+01     1.584583316534000E+01     1.604073691327000E+01
             1.623803797731000E+01     1.643776584443000E+01     1.663995036431000E+01     1.684462175379000E+01
             1.705181060137000E+01     1.726154787176000E+01     1.747386491059000E+01     1.768879344899000E+01
             1.790636560841000E+01     1.812661390539000E+01     1.834957125643000E+01     1.857527098288000E+01
             1.880374681597000E+01     1.903503290181000E+01     1.926916380650000E+01     1.950617452132000E+01
             1.974610046793000E+01     1.998897750369000E+01     2.023484192698000E+01     2.048373048269000E+01
             2.073568036762000E+01     2.099072923614000E+01     2.124891520575000E+01     2.151027686278000E+01
             2.177485326819000E+01     2.204268396339000E+01     2.231380897614000E+01     2.258826882655000E+01
             2.286610453311000E+01     2.314735761887000E+01     2.343207011758000E+01     2.372028458003000E+01
             2.401204408036000E+01     2.430739222255000E+01     2.460637314689000E+01     2.490903153660000E+01
             2.521541262450000E+01     2.552556219978000E+01     2.583952661483000E+01     2.615735279220000E+01
             2.647908823154000E+01     2.680478101679000E+01     2.713447982330000E+01     2.746823392512000E+01
             2.780609320240000E+01     2.814810814879000E+01     2.849432987902000E+01     2.884481013653000E+01
             2.919960130121000E+01     2.955875639722000E+01     2.992232910090000E+01     3.029037374884000E+01
             3.066294534595000E+01     3.104009957371000E+01     3.142189279847000E+01     3.180838207989000E+01
             3.219962517947000E+01     3.259568056918000E+01     3.299660744018000E+01     3.340246571169000E+01
             3.381331603995000E+01     3.422921982724000E+01     3.465023923111000E+01     3.507643717366000E+01
             3.550787735089000E+01     3.594462424231000E+01     3.638674312049000E+01     3.683430006087000E+01
             3.728736195162000E+01     3.774599650362000E+01     3.821027226062000E+01     3.868025860942000E+01
             3.915602579032000E+01     3.963764490754000E+01     4.012518793990000E+01     4.061872775156000E+01
             4.111833810291000E+01     4.162409366157000E+01     4.213607001361000E+01     4.265434367478000E+01
             4.317899210198000E+01     4.371009370483000E+01     4.424772785740000E+01     4.479197491005000E+01
             4.534291620144000E+01     4.590063407072000E+01     4.646521186979000E+01     4.703673397579000E+01
             4.761528580369000E+01     4.820095381908000E+01     4.879382555105000E+01     4.939398960533000E+01
             5.000153567747000E+01     5.061655456631000E+01     5.123913818747000E+01     5.186937958718000E+01
             5.250737295610000E+01     5.315321364346000E+01     5.380699817128000E+01     5.446882424878000E+01
             5.513879078704000E+01     5.581699791372000E+01     5.650354698806000E+01     5.719854061602000E+01
             5.790208266559000E+01     5.861427828238000E+01     5.933523390525000E+01     6.006505728229000E+01