<UPF version="2.0.1">
  <PP_INFO>
    local psp - psp6 format
    74.000    14.000   20210830  zatom,zion,pspd
    6  11  0  0    1125 0  pspcode,pspxc,lmax,lloc,mmax,r2well
    0   0   0    rchrg,fchrg,qchrg
    5---- no use
    6---- no use
    7---- no use
    1.4000E+01  1    zion   lmax+1
    0.0000    0.0000    0.0000   0.0000
    0.0000    0.0000    0.0000
    0.0000    0.0000    0.0000
    0.0000    0.0000    0.0000
    0.0000    0.0000    0.0000
    0.0000    0.0000    0.0000
    0.0000    0.0000    0.0000
    0.0000    0.0000    0.0000
    0.0000    0.0000    0.0000
    0.0000    0.0000    0.0000
    md5 8eceb194727b5c7c66629a8ce6f75a94 w_lps_fitmag.cpi
  </PP_INFO>
  <!--                               -->
  <!-- END OF HUMAN READABLE SECTION -->
  <!--                               -->
  <PP_HEADER
            generated="DFTpy"
            author="shaoxc"
            date="Wed Apr 17 11:15:17 2024"
            comment=""
            element="W"
            pseudo_type="NC"
            relativistic="nonrelativistic"
            is_ultrasoft="F"
            is_paw="F"
            is_coulomb="F"
            has_so="F"
            has_wfc="F"
            has_gipaw="F"
            paw_as_gipaw="F"
            core_correction="F"
            functional="pbe"
            z_valence="14.0"
            total_psenergy="0.0"
            wfc_cutoff="0.0"
            rho_cutoff="0.0"
            l_max="1"
            l_max_rho="0"
            l_local="-1"
            mesh_size="1125"
            number_of_wfc="0"
            number_of_proj="1"/>
  <PP_MESH>
    <PP_R type="real" size="1125" columns="4">
             8.445945945946001E-05     8.549831081081001E-05     8.654994003378000E-05     8.761450429620001E-05
             8.869216269904000E-05     8.978307630024000E-05     9.088740813873001E-05     9.200532325884000E-05
             9.313698873492000E-05     9.428257369636001E-05     9.544224935283000E-05     9.661618901987000E-05
             9.780456814480999E-05     9.900756433299000E-05     1.002253573743000E-04     1.014581292700000E-04
             1.027060642600000E-04     1.039693488504000E-04     1.052481718413000E-04     1.065427243549000E-04
             1.078531998645000E-04     1.091797942228000E-04     1.105227056918000E-04     1.118821349718000E-04
             1.132582852319000E-04     1.146513621403000E-04     1.160615738946000E-04     1.174891312535000E-04
             1.189342475679000E-04     1.203971388130000E-04     1.218780236204000E-04     1.233771233109000E-04
             1.248946619277000E-04     1.264308662694000E-04     1.279859659245000E-04     1.295601933054000E-04
             1.311537836830000E-04     1.327669752223000E-04     1.344000090176000E-04     1.360531291285000E-04
             1.377265826167000E-04     1.394206195829000E-04     1.411354932038000E-04     1.428714597702000E-04
             1.446287787254000E-04     1.464077127037000E-04     1.482085275700000E-04     1.500314924591000E-04
             1.518768798163000E-04     1.537449654381000E-04     1.556360285129000E-04     1.575503516637000E-04
             1.594882209891000E-04     1.614499261073000E-04     1.634357601984000E-04     1.654460200488000E-04
             1.674810060954000E-04     1.695410224704000E-04     1.716263770468000E-04     1.737373814845000E-04
             1.758743512767000E-04     1.780376057974000E-04     1.802274683488000E-04     1.824442662094000E-04
             1.846883306838000E-04     1.869599971512000E-04     1.892596051162000E-04     1.915874982591000E-04
             1.939440244877000E-04     1.963295359889000E-04     1.987443892816000E-04     2.011889452697000E-04
             2.036635692966000E-04     2.061686311989000E-04     2.087045053626000E-04     2.112715707786000E-04
             2.138702110992000E-04     2.165008146957000E-04     2.191637747165000E-04     2.218594891455000E-04
             2.245883608620000E-04     2.273507977006000E-04     2.301472125123000E-04     2.329780232262000E-04
             2.358436529119000E-04     2.387445298427000E-04     2.416810875597000E-04     2.446537649367000E-04
             2.476630062454000E-04     2.507092612223000E-04     2.537929851353000E-04     2.569146388525000E-04
             2.600746889103000E-04     2.632736075839000E-04     2.665118729572000E-04     2.697899689946000E-04
             2.731083856132000E-04     2.764676187563000E-04     2.798681704670000E-04     2.833105489637000E-04
             2.867952687160000E-04     2.903228505212000E-04     2.938938215826000E-04     2.975087155881000E-04
             3.011680727898000E-04     3.048724400851000E-04     3.086223710982000E-04     3.124184262627000E-04
             3.162611729057000E-04     3.201511853324000E-04     3.240890449120000E-04     3.280753401644000E-04
             3.321106668485000E-04     3.361956280507000E-04     3.403308342757000E-04     3.445169035373000E-04
             3.487544614508000E-04     3.530441413267000E-04     3.573865842650000E-04     3.617824392514000E-04
             3.662323632542000E-04     3.707370213223000E-04     3.752970866845000E-04     3.799132408507000E-04
             3.845861737132000E-04     3.893165836499000E-04     3.941051776288000E-04     3.989526713136000E-04
             4.038597891708000E-04     4.088272645776000E-04     4.138558399319000E-04     4.189462667630000E-04
             4.240993058442000E-04     4.293157273061000E-04     4.345963107520000E-04     4.399418453742000E-04
             4.453531300723000E-04     4.508309735722000E-04     4.563761945472000E-04     4.619896217401000E-04
             4.676720940875000E-04     4.734244608448000E-04     4.792475817132000E-04     4.851423269682000E-04
             4.911095775899001E-04     4.971502253943000E-04     5.032651731666000E-04     5.094553347966000E-04
             5.157216354146000E-04     5.220650115302000E-04     5.284864111720000E-04     5.349867940293999E-04
             5.415671315960000E-04     5.482284073146000E-04     5.549716167246000E-04     5.617977676103000E-04
             5.687078801519000E-04     5.757029870778000E-04     5.827841338188000E-04     5.899523786648000E-04
             5.972087929224001E-04     6.045544610753000E-04     6.119904809465000E-04     6.195179638622000E-04
             6.271380348177000E-04     6.348518326459000E-04     6.426605101875000E-04     6.505652344628000E-04
             6.585671868467000E-04     6.666675632449000E-04     6.748675742728000E-04     6.831684454364000E-04
             6.915714173152000E-04     7.000777457482000E-04     7.086887020209000E-04     7.174055730558000E-04
             7.262296616044000E-04     7.351622864421000E-04     7.442047825653000E-04     7.533585013909000E-04
             7.626248109580000E-04     7.720050961328000E-04     7.815007588152000E-04     7.911132181486000E-04
             8.008439107319000E-04     8.106942908339000E-04     8.206658306111000E-04     8.307600203276000E-04
             8.409783685777000E-04     8.513224025112000E-04     8.617936680621000E-04     8.723937301792000E-04
             8.831241730604000E-04     8.939866003891000E-04     9.049826355739000E-04     9.161139219914000E-04
             9.273821232319000E-04     9.387889233477000E-04     9.503360271049000E-04     9.620251602382000E-04
             9.738580697092000E-04     9.858365239666001E-04     9.979623132114000E-04     1.010237249664000E-03
             1.022663167835000E-03     1.035241924799000E-03     1.047975400474000E-03     1.060865497900000E-03
             1.073914143524000E-03     1.087123287490000E-03     1.100494903926000E-03     1.114030991244000E-03
             1.127733572436000E-03     1.141604695377000E-03     1.155646433130000E-03     1.169860884258000E-03
             1.184250173134000E-03     1.198816450264000E-03     1.213561892602000E-03     1.228488703881000E-03
             1.243599114939000E-03     1.258895384052000E-03     1.274379797276000E-03     1.290054668783000E-03
             1.305922341209000E-03     1.321985186006000E-03     1.338245603794000E-03     1.354706024720000E-03
             1.371368908824000E-03     1.388236746403000E-03     1.405312058384000E-03     1.422597396702000E-03
             1.440095344681000E-03     1.457808517421000E-03     1.475739562185000E-03     1.493891158800000E-03
             1.512266020053000E-03     1.530866892100000E-03     1.549696554873000E-03     1.568757822498000E-03
             1.588053543714000E-03     1.607586602302000E-03     1.627359917510000E-03     1.647376444496000E-03
             1.667639174763000E-03     1.688151136613000E-03     1.708915395593000E-03     1.729935054959000E-03
             1.751213256135000E-03     1.772753179185000E-03     1.794558043289000E-03     1.816631107222000E-03
             1.838975669840000E-03     1.861595070579000E-03     1.884492689947000E-03     1.907671950034000E-03
             1.931136315019000E-03     1.954889291694000E-03     1.978934429982000E-03     2.003275323471000E-03
             2.027915609949000E-03     2.052858971952000E-03     2.078109137307000E-03     2.103669879695000E-03
             2.129545019216000E-03     2.155738422952000E-03     2.182254005554000E-03     2.209095729823000E-03
             2.236267607300000E-03     2.263773698869000E-03     2.291618115366000E-03     2.319805018184000E-03
             2.348338619908000E-03     2.377223184933000E-03     2.406463030108000E-03     2.436062525378000E-03
             2.466026094440000E-03     2.496358215402000E-03     2.527063421451000E-03     2.558146301535000E-03
             2.589611501044000E-03     2.621463722507000E-03     2.653707726294000E-03     2.686348331327000E-03
             2.719390415802000E-03     2.752838917917000E-03     2.786698836607000E-03     2.820975232297000E-03
             2.855673227655000E-03     2.890798008355000E-03     2.926354823857000E-03     2.962348988191000E-03
             2.998785880746000E-03     3.035670947079000E-03     3.073009699728000E-03     3.110807719035000E-03
             3.149070653979000E-03     3.187804223023000E-03     3.227014214966000E-03     3.266706489810000E-03
             3.306886979635000E-03     3.347561689484000E-03     3.388736698265000E-03     3.430418159653000E-03
             3.472612303017000E-03     3.515325434344000E-03     3.558563937187000E-03     3.602334273614000E-03
             3.646642985180000E-03     3.691496693897000E-03     3.736902103232000E-03     3.782865999102000E-03
             3.829395250891000E-03     3.876496812477000E-03     3.924177723270000E-03     3.972445109267000E-03
             4.021306184110000E-03     4.070768250175000E-03     4.120838699652000E-03     4.171525015658000E-03
             4.222834773351000E-03     4.274775641063000E-03     4.327355381448000E-03     4.380581852640000E-03
             4.434463009427000E-03     4.489006904443000E-03     4.544221689368000E-03     4.600115616147000E-03
             4.656697038226000E-03     4.713974411796000E-03     4.771956297061000E-03     4.830651359515000E-03
             4.890068371237000E-03     4.950216212203000E-03     5.011103871613000E-03     5.072740449234000E-03
             5.135135156759000E-03     5.198297319188000E-03     5.262236376214000E-03     5.326961883641000E-03
             5.392483514810000E-03     5.458811062042000E-03     5.525954438105000E-03     5.593923677694000E-03
             5.662728938929000E-03     5.732380504878000E-03     5.802888785088000E-03     5.874264317145000E-03
             5.946517768246000E-03     6.019659936795000E-03     6.093701754018000E-03     6.168654285592000E-03
             6.244528733305000E-03     6.321336436724000E-03     6.399088874896000E-03     6.477797668058000E-03
             6.557474579375000E-03     6.638131516701000E-03     6.719780534356000E-03     6.802433834929000E-03
             6.886103771099000E-03     6.970802847483000E-03     7.056543722507000E-03     7.143339210294000E-03
             7.231202282580000E-03     7.320146070656000E-03     7.410183867325000E-03     7.501329128893000E-03
             7.593595477179000E-03     7.686996701548000E-03     7.781546760977000E-03     7.877259786137000E-03
             7.974150081507000E-03     8.072232127509000E-03     8.171520582677999E-03     8.272030285845000E-03
             8.373776258360000E-03     8.476773706338000E-03     8.581038022926001E-03     8.686584790608000E-03
             8.793429783533001E-03     8.901588969870000E-03     9.011078514199000E-03     9.121914779924000E-03
             9.234114331716999E-03     9.347693937997000E-03     9.462670573435000E-03     9.579061421488001E-03
             9.696883876972000E-03     9.816155548659000E-03     9.936894261908000E-03     1.005911806133000E-02
             1.018284521348000E-02     1.030809420961000E-02     1.043488376839000E-02     1.056323283874000E-02
             1.069316060266000E-02     1.082468647807000E-02     1.095783012175000E-02     1.109261143225000E-02
             1.122905055286000E-02     1.136716787466000E-02     1.150698403952000E-02     1.164851994321000E-02
             1.179179673851000E-02     1.193683583839000E-02     1.208365891920000E-02     1.223228792391000E-02
             1.238274506537000E-02     1.253505282968000E-02     1.268923397948000E-02     1.284531155743000E-02
             1.300330888959000E-02     1.316324958893000E-02     1.332515755887000E-02     1.348905699685000E-02
             1.365497239791000E-02     1.382292855840000E-02     1.399295057967000E-02     1.416506387180000E-02
             1.433929415742000E-02     1.451566747556000E-02     1.469421018551000E-02     1.487494897079000E-02
             1.505791084313000E-02     1.524312314650000E-02     1.543061356121000E-02     1.562041010801000E-02
             1.581254115234000E-02     1.600703540851000E-02     1.620392194403000E-02     1.640323018395000E-02
             1.660498991521000E-02     1.680923129117000E-02     1.701598483605000E-02     1.722528144953000E-02
             1.743715241136000E-02     1.765162938602000E-02     1.786874442747000E-02     1.808852998393000E-02
             1.831101890273000E-02     1.853624443523000E-02     1.876424024178000E-02     1.899504039676000E-02
             1.922867939364000E-02     1.946519215018000E-02     1.970461401363000E-02     1.994698076600000E-02
             2.019232862942000E-02     2.044069427156000E-02     2.069211481110000E-02     2.094662782328000E-02
             2.120427134550000E-02     2.146508388305000E-02     2.172910441481000E-02     2.199637239912000E-02
             2.226692777962000E-02     2.254081099131000E-02     2.281806296651000E-02     2.309872514100000E-02
             2.338283946023000E-02     2.367044838559000E-02     2.396159490073000E-02     2.425632251801000E-02
             2.455467528498000E-02     2.485669779099000E-02     2.516243517382000E-02     2.547193312646000E-02
             2.578523790391000E-02     2.610239633013000E-02     2.642345580499000E-02     2.674846431139000E-02
             2.707747042242000E-02     2.741052330862000E-02     2.774767274531000E-02     2.808896912008000E-02
             2.843446344026000E-02     2.878420734057000E-02     2.913825309086000E-02     2.949665360388000E-02
             2.985946244321000E-02     3.022673383126000E-02     3.059852265738000E-02     3.097488448607000E-02
             3.135587556525000E-02     3.174155283470000E-02     3.213197393457000E-02     3.252719721396000E-02
             3.292728173969000E-02     3.333228730509000E-02     3.374227443895000E-02     3.415730441454000E-02
             3.457743925884000E-02     3.500274176173000E-02     3.543327548540000E-02     3.586910477387000E-02
             3.631029476259000E-02     3.675691138816000E-02     3.720902139824000E-02     3.766669236144000E-02
             3.812999267748000E-02     3.859899158742000E-02     3.907375918394000E-02     3.955436642190000E-02
             4.004088512889000E-02     4.053338801598000E-02     4.103194868858000E-02     4.153664165744000E-02
             4.204754234983000E-02     4.256472712073000E-02     4.308827326432000E-02     4.361825902547000E-02
             4.415476361148000E-02     4.469786720390000E-02     4.524765097051000E-02     4.580419707745000E-02
             4.636758870150000E-02     4.693791004253000E-02     4.751524633605000E-02     4.809968386599000E-02
             4.869130997754000E-02     4.929021309026000E-02     4.989648271127000E-02     5.051020944862000E-02
             5.113148502484000E-02     5.176040229064000E-02     5.239705523882000E-02     5.304153901826000E-02
             5.369394994818000E-02     5.435438553254000E-02     5.502294447459000E-02     5.569972669163000E-02
             5.638483332994000E-02     5.707836677990000E-02     5.778043069129000E-02     5.849112998879000E-02
             5.921057088766000E-02     5.993886090957000E-02     6.067610889876000E-02     6.142242503822000E-02
             6.217792086619000E-02     6.294270929284000E-02     6.371690461714000E-02     6.450062254393001E-02
             6.529398020122000E-02     6.609709615770000E-02     6.691009044044000E-02     6.773308455286001E-02
             6.856620149286000E-02     6.940956577122000E-02     7.026330343020000E-02     7.112754206240000E-02
             7.200241082976000E-02     7.288804048297000E-02     7.378456338091000E-02     7.469211351049000E-02
             7.561082650667000E-02     7.654083967271000E-02     7.748229200068001E-02     7.843532419229000E-02
             7.940007867984999E-02     8.037669964762000E-02     8.136533305328000E-02     8.236612664984000E-02
             8.337923000763001E-02     8.440479453671999E-02     8.544297350953001E-02     8.649392208369000E-02
             8.755779732532000E-02     8.863475823241999E-02     8.972496575868000E-02     9.082858283752000E-02
             9.194577440642000E-02     9.307670743162000E-02     9.422155093302000E-02     9.538047600950000E-02
             9.655365586442000E-02     9.774126583155000E-02     9.894348340127999E-02     1.001604882471000E-01
             1.013924622525000E-01     1.026395895383000E-01     1.039020564896000E-01     1.051800517844000E-01
             1.064737664213000E-01     1.077833937483000E-01     1.091091294914000E-01     1.104511717842000E-01
             1.118097211971000E-01     1.131849807678000E-01     1.145771560313000E-01     1.159864550505000E-01
             1.174130884476000E-01     1.188572694355000E-01     1.203192138496000E-01     1.217991401799000E-01
             1.232972696041000E-01     1.248138260203000E-01     1.263490360803000E-01     1.279031292241000E-01
             1.294763377135000E-01     1.310688966674000E-01     1.326810440964000E-01     1.343130209388000E-01
             1.359650710964000E-01     1.376374414709000E-01     1.393303820009000E-01     1.410441456996000E-01
             1.427789886917000E-01     1.445351702526000E-01     1.463129528467000E-01     1.481126021667000E-01
             1.499343871733000E-01     1.517785801356000E-01     1.536454566712000E-01     1.555352957883000E-01
             1.574483799265000E-01     1.593849949996000E-01     1.613454304381000E-01     1.633299792325000E-01
             1.653389379770000E-01     1.673726069142000E-01     1.694312899792000E-01     1.715152948459000E-01
             1.736249329725000E-01     1.757605196481000E-01     1.779223740398000E-01     1.801108192405000E-01
             1.823261823171000E-01     1.845687943596000E-01     1.868389905302000E-01     1.891371101138000E-01
             1.914634965682000E-01     1.938184975760000E-01     1.962024650961000E-01     1.986157554168000E-01
             2.010587292084000E-01     2.035317515777000E-01     2.060351921221000E-01     2.085694249852000E-01
             2.111348289125000E-01     2.137317873082000E-01     2.163606882921000E-01     2.190219247580000E-01
             2.217158944326000E-01     2.244429999341000E-01     2.272036488333000E-01     2.299982537139000E-01
             2.328272322346000E-01     2.356910071911000E-01     2.385900065796000E-01     2.415246636605000E-01
             2.444954170235000E-01     2.475027106529000E-01     2.505469939939000E-01     2.536287220200000E-01
             2.567483553009000E-01     2.599063600711000E-01     2.631032083000000E-01     2.663393777621000E-01
             2.696153521085000E-01     2.729316209395000E-01     2.762886798770000E-01     2.796870306395000E-01
             2.831271811164000E-01     2.866096454441000E-01     2.901349440831000E-01     2.937036038953000E-01
             2.973161582232000E-01     3.009731469694000E-01     3.046751166771000E-01     3.084226206122000E-01
             3.122162188457000E-01     3.160564783375000E-01     3.199439730211000E-01     3.238792838892000E-01
             3.278629990811000E-01     3.318957139698000E-01     3.359780312516000E-01     3.401105610360000E-01
             3.442939209367000E-01     3.485287361643000E-01     3.528156396191000E-01     3.571552719864000E-01
             3.615482818318000E-01     3.659953256984000E-01     3.704970682045000E-01     3.750541821434000E-01
             3.796673485837000E-01     3.843372569713000E-01     3.890646052321000E-01     3.938500998764000E-01
             3.986944561049000E-01     4.035983979150000E-01     4.085626582093000E-01     4.135879789053000E-01
             4.186751110458000E-01     4.238248149117000E-01     4.290378601351000E-01     4.343150258148000E-01
             4.396571006323000E-01     4.450648829701000E-01     4.505391810306000E-01     4.560808129573000E-01
             4.616906069567000E-01     4.673694014222000E-01     4.731180450597000E-01     4.789373970140000E-01
             4.848283269972000E-01     4.907917154193000E-01     4.968284535190000E-01     5.029394434972000E-01
             5.091255986523000E-01     5.153878435157000E-01     5.217271139909000E-01     5.281443574930000E-01
             5.346405330902000E-01     5.412166116472000E-01     5.478735759705000E-01     5.546124209549000E-01
             5.614341537326000E-01     5.683397938235000E-01     5.753303732875999E-01     5.824069368790000E-01
             5.895705422026000E-01     5.968222598717000E-01     6.041631736681000E-01     6.115943807042000E-01
             6.191169915869000E-01     6.267321305834000E-01     6.344409357896000E-01     6.422445592998000E-01
             6.501441673792000E-01     6.581409406380000E-01     6.662360742078000E-01     6.744307779206000E-01
             6.827262764890000E-01     6.911238096898000E-01     6.996246325490000E-01     7.082300155294000E-01
             7.169412447204000E-01     7.257596220304000E-01     7.346864653814000E-01     7.437231089056000E-01
             7.528709031451000E-01     7.621312152538000E-01     7.715054292014000E-01     7.809949459806000E-01
             7.906011838162000E-01     8.003255783771001E-01     8.101695829912000E-01     8.201346688619000E-01
             8.302223252890000E-01     8.404340598900000E-01     8.507713988266000E-01     8.612358870322000E-01
             8.718290884427000E-01     8.825525862306000E-01     8.934079830411999E-01     9.043969012326000E-01
             9.155209831177999E-01     9.267818912101000E-01     9.381813084720000E-01     9.497209385662000E-01
             9.614025061106000E-01     9.732277569357000E-01     9.851984583460000E-01     9.973163993837000E-01
             1.009583391096000E+00     1.022001266807000E+00     1.034571882388000E+00     1.047297116542000E+00
             1.060178871075000E+00     1.073219071189000E+00     1.086419665765000E+00     1.099782627654000E+00
             1.113309953974000E+00     1.127003666408000E+00     1.140865811505000E+00     1.154898460986000E+00
             1.169103712056000E+00     1.183483687715000E+00     1.198040537074000E+00     1.212776435680000E+00
             1.227693585838000E+00     1.242794216944000E+00     1.258080585813000E+00     1.273554977018000E+00
             1.289219703235000E+00     1.305077105585000E+00     1.321129553984000E+00     1.337379447498000E+00
             1.353829214702000E+00     1.370481314043000E+00     1.387338234206000E+00     1.404402494486000E+00
             1.421676645169000E+00     1.439163267904000E+00     1.456864976100000E+00     1.474784415306000E+00
             1.492924263614000E+00     1.511287232056000E+00     1.529876065011000E+00     1.548693540610000E+00
             1.567742471160000E+00     1.587025703555000E+00     1.606546119709000E+00     1.626306636981000E+00
             1.646310208616000E+00     1.666559824182000E+00     1.687058510019000E+00     1.707809329693000E+00
             1.728815384448000E+00     1.750079813676000E+00     1.771605795385000E+00     1.793396546668000E+00
             1.815455324192000E+00     1.837785424680000E+00     1.860390185403000E+00     1.883272984683000E+00
             1.906437242395000E+00     1.929886420477000E+00     1.953624023449000E+00     1.977653598937000E+00
             2.001978738204000E+00     2.026603076684000E+00     2.051530294527000E+00     2.076764117150000E+00
             2.102308315791000E+00     2.128166708075000E+00     2.154343158584000E+00     2.180841579435000E+00
             2.207665930862000E+00     2.234820221811000E+00     2.262308510540000E+00     2.290134905219000E+00
             2.318303564553000E+00     2.346818698397000E+00     2.375684568388000E+00     2.404905488579000E+00
             2.434485826088000E+00     2.464430001749000E+00     2.494742490771000E+00     2.525427823407000E+00
             2.556490585635000E+00     2.587935419838000E+00     2.619767025503000E+00     2.651990159916000E+00
             2.684609638883000E+00     2.717630337441000E+00     2.751057190592000E+00     2.784895194036000E+00
             2.819149404923000E+00     2.853824942604000E+00     2.888926989398000E+00     2.924460791367000E+00
             2.960431659101000E+00     2.996844968508000E+00     3.033706161621000E+00     3.071020747408000E+00
             3.108794302601000E+00     3.147032472524000E+00     3.185740971936000E+00     3.224925585890000E+00
             3.264592170597000E+00     3.304746654295000E+00     3.345395038143000E+00     3.386543397112000E+00
             3.428197880897000E+00     3.470364714832000E+00     3.513050200824000E+00     3.556260718294000E+00
             3.600002725129000E+00     3.644282758648000E+00     3.689107436580000E+00     3.734483458050000E+00
             3.780417604584000E+00     3.826916741120000E+00     3.873987817036000E+00     3.921637867185000E+00
             3.969874012952000E+00     4.018703463311000E+00     4.068133515910000E+00     4.118171558155000E+00
             4.168825068321000E+00     4.220101616661000E+00     4.272008866546000E+00     4.324554575605000E+00
             4.377746596885000E+00     4.431592880026000E+00     4.486101472450000E+00     4.541280520562000E+00
             4.597138270965000E+00     4.653683071697000E+00     4.710923373479000E+00     4.768867730973000E+00
             4.827524804064000E+00     4.886903359154000E+00     4.947012270472000E+00     5.007860521398000E+00
             5.069457205812000E+00     5.131811529443000E+00     5.194932811255000E+00     5.258830484834000E+00
             5.323514099797000E+00     5.388993323225000E+00     5.455277941100000E+00     5.522377859776000E+00
             5.590303107451000E+00     5.659063835673000E+00     5.728670320852000E+00     5.799132965798000E+00
             5.870462301277000E+00     5.942668987583000E+00     6.015763816130000E+00     6.089757711069000E+00
             6.164661730915000E+00     6.240487070205000E+00     6.317245061169000E+00     6.394947175421000E+00
             6.473605025679000E+00     6.553230367494000E+00     6.633835101015000E+00     6.715431272757000E+00
             6.798031077412000E+00     6.881646859664000E+00     6.966291116038000E+00     7.051976496765000E+00
             7.138715807676000E+00     7.226522012110000E+00     7.315408232859000E+00     7.405387754123000E+00
             7.496474023499000E+00     7.588680653988000E+00     7.682021426032000E+00     7.776510289572000E+00
             7.872161366134000E+00     7.968988950937000E+00     8.067007515034000E+00     8.166231707469001E+00
             8.266676357471001E+00     8.368356476668000E+00     8.471287261331000E+00     8.575484094645001E+00
             8.680962549008999E+00     8.787738388361999E+00     8.895827570539000E+00     9.005246249656000E+00
             9.116010778527000E+00     9.228137711103001E+00     9.341643804949999E+00     9.456546023750001E+00
             9.572861539843000E+00     9.690607736783001E+00     9.809802211945000E+00     9.930462779152000E+00
             1.005260747134000E+01     1.017625454323000E+01     1.030142247412000E+01     1.042812997055000E+01
             1.055639596918000E+01     1.068623963961000E+01     1.081768038717000E+01     1.095073785593000E+01
             1.108543193156000E+01     1.122178274432000E+01     1.135981067208000E+01     1.149953634334000E+01
             1.164098064036000E+01     1.178416470224000E+01     1.192910992808000E+01     1.207583798020000E+01
             1.222437078735000E+01     1.237473054804000E+01     1.252693973378000E+01     1.268102109250000E+01
             1.283699765194000E+01     1.299489272306000E+01     1.315472990355000E+01     1.331653308137000E+01
             1.348032643827000E+01     1.364613445346000E+01     1.381398190724000E+01     1.398389388469000E+01
             1.415589577948000E+01     1.433001329756000E+01     1.450627246112000E+01     1.468469961240000E+01
             1.486532141763000E+01     1.504816487106000E+01     1.523325729898000E+01     1.542062636376000E+01
             1.561030006803000E+01     1.580230675887000E+01     1.599667513200000E+01     1.619343423612000E+01
             1.639261347723000E+01     1.659424262300000E+01     1.679835180726000E+01     1.700497153449000E+01
             1.721413268437000E+01     1.742586651638000E+01     1.764020467453000E+01     1.785717919203000E+01