<UPF version="2.0.1">
  <PP_INFO>
    Ga  bulk derived local pseudopotential.
    31.00000              3.00000      20070909    zatom,  zion,  pspd
    8    2   0   0   801   0    pspcode,pspxc,lmax,lloc,mmax,r2well
    0   -1   0                       rchrg  fchrg   qchrg
    0    0   0   0   0   nproj
    0                    extension_switch
  </PP_INFO>
  <!--                               -->
  <!-- END OF HUMAN READABLE SECTION -->
  <!--                               -->
  <PP_HEADER
            generated="DFTpy"
            author="shaoxc"
            date="Wed Oct 20 15:06:49 2021"
            comment=""
            element="Ga"
            pseudo_type="NC"
            relativistic="nonrelativistic"
            is_ultrasoft="F"
            is_paw="F"
            is_coulomb="F"
            has_so="F"
            has_wfc="F"
            has_gipaw="F"
            paw_as_gipaw="F"
            core_correction="F"
            functional="LDA"
            z_valence="3.0"
            total_psenergy="0.0"
            wfc_cutoff="0.0"
            rho_cutoff="0.0"
            l_max="1"
            l_max_rho="0"
            l_local="-1"
            mesh_size="801"
            number_of_wfc="0"
            number_of_proj="1"/>
  <PP_MESH>
    <PP_R type="real" size="801" columns="4">
             0.000000000000000E+00     1.000000000000000E-02     2.000000000000000E-02     3.000000000000000E-02
             4.000000000000000E-02     5.000000000000000E-02     6.000000000000000E-02     7.000000000000001E-02
             8.000000000000000E-02     9.000000000000000E-02     1.000000000000000E-01     1.100000000000000E-01
             1.200000000000000E-01     1.300000000000000E-01     1.400000000000000E-01     1.500000000000000E-01
             1.600000000000000E-01     1.700000000000000E-01     1.800000000000000E-01     1.900000000000000E-01
             2.000000000000000E-01     2.100000000000000E-01     2.200000000000000E-01     2.300000000000000E-01
             2.400000000000000E-01     2.500000000000000E-01     2.600000000000000E-01     2.700000000000000E-01
             2.800000000000000E-01     2.900000000000000E-01     3.000000000000000E-01     3.100000000000000E-01
             3.200000000000000E-01     3.300000000000000E-01     3.400000000000000E-01     3.500000000000000E-01
             3.600000000000000E-01     3.700000000000000E-01     3.800000000000000E-01     3.900000000000000E-01
             4.000000000000000E-01     4.100000000000000E-01     4.200000000000000E-01     4.300000000000000E-01
             4.400000000000000E-01     4.500000000000000E-01     4.600000000000000E-01     4.700000000000000E-01
             4.800000000000000E-01     4.900000000000000E-01     5.000000000000000E-01     5.100000000000000E-01
             5.200000000000000E-01     5.300000000000000E-01     5.400000000000000E-01     5.500000000000000E-01
             5.600000000000001E-01     5.700000000000000E-01     5.800000000000000E-01     5.900000000000000E-01
             6.000000000000000E-01     6.100000000000000E-01     6.200000000000000E-01     6.300000000000000E-01
             6.400000000000000E-01     6.500000000000000E-01     6.600000000000000E-01     6.700000000000000E-01
             6.800000000000000E-01     6.899999999999999E-01     7.000000000000000E-01     7.100000000000000E-01
             7.200000000000000E-01     7.300000000000000E-01     7.400000000000000E-01     7.500000000000000E-01
             7.600000000000000E-01     7.700000000000000E-01     7.800000000000000E-01     7.900000000000000E-01
             8.000000000000000E-01     8.100000000000001E-01     8.200000000000000E-01     8.300000000000000E-01
             8.400000000000000E-01     8.500000000000000E-01     8.600000000000000E-01     8.700000000000000E-01
             8.800000000000000E-01     8.900000000000000E-01     9.000000000000000E-01     9.100000000000000E-01
             9.200000000000000E-01     9.300000000000000E-01     9.399999999999999E-01     9.500000000000000E-01
             9.600000000000000E-01     9.700000000000000E-01     9.800000000000000E-01     9.900000000000000E-01
             1.000000000000000E+00     1.010000000000000E+00     1.020000000000000E+00     1.030000000000000E+00
             1.040000000000000E+00     1.050000000000000E+00     1.060000000000000E+00     1.070000000000000E+00
             1.080000000000000E+00     1.090000000000000E+00     1.100000000000000E+00     1.110000000000000E+00
             1.120000000000000E+00     1.130000000000000E+00     1.140000000000000E+00     1.150000000000000E+00
             1.160000000000000E+00     1.170000000000000E+00     1.180000000000000E+00     1.190000000000000E+00
             1.200000000000000E+00     1.210000000000000E+00     1.220000000000000E+00     1.230000000000000E+00
             1.240000000000000E+00     1.250000000000000E+00     1.260000000000000E+00     1.270000000000000E+00
             1.280000000000000E+00     1.290000000000000E+00     1.300000000000000E+00     1.310000000000000E+00
             1.320000000000000E+00     1.330000000000000E+00     1.340000000000000E+00     1.350000000000000E+00
             1.360000000000000E+00     1.370000000000000E+00     1.380000000000000E+00     1.390000000000000E+00
             1.400000000000000E+00     1.410000000000000E+00     1.420000000000000E+00     1.430000000000000E+00
             1.440000000000000E+00     1.450000000000000E+00     1.460000000000000E+00     1.470000000000000E+00
             1.480000000000000E+00     1.490000000000000E+00     1.500000000000000E+00     1.510000000000000E+00
             1.520000000000000E+00     1.530000000000000E+00     1.540000000000000E+00     1.550000000000000E+00
             1.560000000000000E+00     1.570000000000000E+00     1.580000000000000E+00     1.590000000000000E+00
             1.600000000000000E+00     1.610000000000000E+00     1.620000000000000E+00     1.630000000000000E+00
             1.640000000000000E+00     1.650000000000000E+00     1.660000000000000E+00     1.670000000000000E+00
             1.680000000000000E+00     1.690000000000000E+00     1.700000000000000E+00     1.710000000000000E+00
             1.720000000000000E+00     1.730000000000000E+00     1.740000000000000E+00     1.750000000000000E+00
             1.760000000000000E+00     1.770000000000000E+00     1.780000000000000E+00     1.790000000000000E+00
             1.800000000000000E+00     1.810000000000000E+00     1.820000000000000E+00     1.830000000000000E+00
             1.840000000000000E+00     1.850000000000000E+00     1.860000000000000E+00     1.870000000000000E+00
             1.880000000000000E+00     1.890000000000000E+00     1.900000000000000E+00     1.910000000000000E+00
             1.920000000000000E+00     1.930000000000000E+00     1.940000000000000E+00     1.950000000000000E+00
             1.960000000000000E+00     1.970000000000000E+00     1.980000000000000E+00     1.990000000000000E+00
             2.000000000000000E+00     2.010000000000000E+00     2.020000000000000E+00     2.030000000000000E+00
             2.040000000000000E+00     2.050000000000000E+00     2.060000000000000E+00     2.070000000000000E+00
             2.080000000000000E+00     2.090000000000000E+00     2.100000000000000E+00     2.110000000000000E+00
             2.120000000000000E+00     2.130000000000000E+00     2.140000000000000E+00     2.150000000000000E+00
             2.160000000000000E+00     2.170000000000000E+00     2.180000000000000E+00     2.190000000000000E+00
             2.200000000000000E+00     2.210000000000000E+00     2.220000000000000E+00     2.230000000000000E+00
             2.240000000000000E+00     2.250000000000000E+00     2.260000000000000E+00     2.270000000000000E+00
             2.280000000000000E+00     2.290000000000000E+00     2.300000000000000E+00     2.310000000000000E+00
             2.320000000000000E+00     2.330000000000000E+00     2.340000000000000E+00     2.350000000000000E+00
             2.360000000000000E+00     2.370000000000000E+00     2.380000000000000E+00     2.390000000000000E+00
             2.400000000000000E+00     2.410000000000000E+00     2.420000000000000E+00     2.430000000000000E+00
             2.440000000000000E+00     2.450000000000000E+00     2.460000000000000E+00     2.470000000000000E+00
             2.480000000000000E+00     2.490000000000000E+00     2.500000000000000E+00     2.510000000000000E+00
             2.520000000000000E+00     2.530000000000000E+00     2.540000000000000E+00     2.550000000000000E+00
             2.560000000000000E+00     2.570000000000000E+00     2.580000000000000E+00     2.590000000000000E+00
             2.600000000000000E+00     2.610000000000000E+00     2.620000000000000E+00     2.630000000000000E+00
             2.640000000000000E+00     2.650000000000000E+00     2.660000000000000E+00     2.670000000000000E+00
             2.680000000000000E+00     2.690000000000000E+00     2.700000000000000E+00     2.710000000000000E+00
             2.720000000000000E+00     2.730000000000000E+00     2.740000000000000E+00     2.750000000000000E+00
             2.760000000000000E+00     2.770000000000000E+00     2.780000000000000E+00     2.790000000000000E+00
             2.800000000000000E+00     2.810000000000000E+00     2.820000000000000E+00     2.830000000000000E+00
             2.840000000000000E+00     2.850000000000000E+00     2.860000000000000E+00     2.870000000000000E+00
             2.880000000000000E+00     2.890000000000000E+00     2.900000000000000E+00     2.910000000000000E+00
             2.920000000000000E+00     2.930000000000000E+00     2.940000000000000E+00     2.950000000000000E+00
             2.960000000000000E+00     2.970000000000000E+00     2.980000000000000E+00     2.990000000000000E+00
             3.000000000000000E+00     3.010000000000000E+00     3.020000000000000E+00     3.030000000000000E+00
             3.040000000000000E+00     3.050000000000000E+00     3.060000000000000E+00     3.070000000000000E+00
             3.080000000000000E+00     3.090000000000000E+00     3.100000000000000E+00     3.110000000000000E+00
             3.120000000000000E+00     3.130000000000000E+00     3.140000000000000E+00     3.150000000000000E+00
             3.160000000000000E+00     3.170000000000000E+00     3.180000000000000E+00     3.190000000000000E+00
             3.200000000000000E+00     3.210000000000000E+00     3.220000000000000E+00     3.230000000000000E+00
             3.240000000000000E+00     3.250000000000000E+00     3.260000000000000E+00     3.270000000000000E+00
             3.280000000000000E+00     3.290000000000000E+00     3.300000000000000E+00     3.310000000000000E+00
             3.320000000000000E+00     3.330000000000000E+00     3.340000000000000E+00     3.350000000000000E+00
             3.360000000000000E+00     3.370000000000000E+00     3.380000000000000E+00     3.390000000000000E+00
             3.400000000000000E+00     3.410000000000000E+00     3.420000000000000E+00     3.430000000000000E+00
             3.440000000000000E+00     3.450000000000000E+00     3.460000000000000E+00     3.470000000000000E+00
             3.480000000000000E+00     3.490000000000000E+00     3.500000000000000E+00     3.510000000000000E+00
             3.520000000000000E+00     3.530000000000000E+00     3.540000000000000E+00     3.550000000000000E+00
             3.560000000000000E+00     3.570000000000000E+00     3.580000000000000E+00     3.590000000000000E+00
             3.600000000000000E+00     3.610000000000000E+00     3.620000000000000E+00     3.630000000000000E+00
             3.640000000000000E+00     3.650000000000000E+00     3.660000000000000E+00     3.670000000000000E+00
             3.680000000000000E+00     3.690000000000000E+00     3.700000000000000E+00     3.710000000000000E+00
             3.720000000000000E+00     3.730000000000000E+00     3.740000000000000E+00     3.750000000000000E+00
             3.760000000000000E+00     3.770000000000000E+00     3.780000000000000E+00     3.790000000000000E+00
             3.800000000000000E+00     3.810000000000000E+00     3.820000000000000E+00     3.830000000000000E+00
             3.840000000000000E+00     3.850000000000000E+00     3.860000000000000E+00     3.870000000000000E+00
             3.880000000000000E+00     3.890000000000000E+00     3.900000000000000E+00     3.910000000000000E+00
             3.920000000000000E+00     3.930000000000000E+00     3.940000000000000E+00     3.950000000000000E+00
             3.960000000000000E+00     3.970000000000000E+00     3.980000000000000E+00     3.990000000000000E+00
             4.000000000000000E+00     4.010000000000000E+00     4.020000000000000E+00     4.029999999999999E+00
             4.040000000000000E+00     4.050000000000000E+00     4.060000000000001E+00     4.070000000000000E+00
             4.080000000000000E+00     4.090000000000000E+00     4.100000000000000E+00     4.109999999999999E+00
             4.120000000000000E+00     4.130000000000000E+00     4.140000000000001E+00     4.150000000000000E+00
             4.160000000000000E+00     4.170000000000000E+00     4.180000000000000E+00     4.190000000000000E+00
             4.199999999999999E+00     4.210000000000000E+00     4.220000000000000E+00     4.230000000000000E+00
             4.240000000000000E+00     4.250000000000000E+00     4.260000000000000E+00     4.270000000000000E+00
             4.279999999999999E+00     4.290000000000000E+00     4.300000000000000E+00     4.310000000000001E+00
             4.320000000000000E+00     4.330000000000000E+00     4.340000000000000E+00     4.350000000000000E+00
             4.359999999999999E+00     4.370000000000000E+00     4.380000000000000E+00     4.390000000000001E+00
             4.400000000000000E+00     4.410000000000000E+00     4.420000000000000E+00     4.430000000000000E+00
             4.440000000000000E+00     4.449999999999999E+00     4.460000000000000E+00     4.470000000000000E+00
             4.480000000000000E+00     4.490000000000000E+00     4.500000000000000E+00     4.510000000000000E+00
             4.520000000000000E+00     4.529999999999999E+00     4.540000000000000E+00     4.550000000000000E+00
             4.560000000000001E+00     4.570000000000000E+00     4.580000000000000E+00     4.590000000000000E+00
             4.600000000000000E+00     4.609999999999999E+00     4.620000000000000E+00     4.630000000000000E+00
             4.640000000000001E+00     4.650000000000000E+00     4.660000000000000E+00     4.670000000000000E+00
             4.680000000000000E+00     4.690000000000000E+00     4.699999999999999E+00     4.710000000000000E+00
             4.720000000000000E+00     4.730000000000000E+00     4.740000000000000E+00     4.750000000000000E+00
             4.760000000000000E+00     4.770000000000000E+00     4.779999999999999E+00     4.790000000000000E+00
             4.800000000000000E+00     4.810000000000001E+00     4.820000000000000E+00     4.830000000000000E+00
             4.840000000000000E+00     4.850000000000000E+00     4.859999999999999E+00     4.870000000000000E+00
             4.880000000000000E+00     4.890000000000001E+00     4.900000000000000E+00     4.910000000000000E+00
             4.920000000000000E+00     4.930000000000000E+00     4.940000000000000E+00     4.949999999999999E+00
             4.960000000000000E+00     4.970000000000000E+00     4.980000000000000E+00     4.990000000000000E+00
             5.000000000000000E+00     5.010000000000000E+00     5.020000000000000E+00     5.029999999999999E+00
             5.040000000000000E+00     5.050000000000000E+00     5.060000000000001E+00     5.070000000000000E+00
             5.080000000000000E+00     5.090000000000000E+00     5.100000000000000E+00     5.109999999999999E+00
             5.120000000000000E+00     5.130000000000000E+00     5.140000000000001E+00     5.150000000000000E+00
             5.160000000000000E+00     5.170000000000000E+00     5.180000000000000E+00     5.190000000000000E+00
             5.199999999999999E+00     5.210000000000000E+00     5.220000000000000E+00     5.230000000000000E+00
             5.240000000000000E+00     5.250000000000000E+00     5.260000000000000E+00     5.270000000000000E+00
             5.279999999999999E+00     5.290000000000000E+00     5.300000000000000E+00     5.310000000000001E+00
             5.320000000000000E+00     5.330000000000000E+00     5.340000000000000E+00     5.350000000000000E+00
             5.359999999999999E+00     5.370000000000000E+00     5.380000000000000E+00     5.390000000000001E+00
             5.400000000000000E+00     5.410000000000000E+00     5.420000000000000E+00     5.430000000000000E+00
             5.440000000000000E+00     5.449999999999999E+00     5.460000000000000E+00     5.470000000000000E+00
             5.480000000000000E+00     5.490000000000000E+00     5.500000000000000E+00     5.510000000000000E+00
             5.520000000000000E+00     5.529999999999999E+00     5.540000000000000E+00     5.550000000000000E+00
             5.560000000000001E+00     5.570000000000000E+00     5.580000000000000E+00     5.590000000000000E+00
             5.600000000000000E+00     5.609999999999999E+00     5.620000000000000E+00     5.630000000000000E+00
             5.640000000000001E+00     5.650000000000000E+00     5.660000000000000E+00     5.670000000000000E+00
             5.680000000000000E+00     5.690000000000000E+00     5.699999999999999E+00     5.710000000000000E+00
             5.720000000000000E+00     5.730000000000000E+00     5.740000000000000E+00     5.750000000000000E+00
             5.760000000000000E+00     5.770000000000000E+00     5.779999999999999E+00     5.790000000000000E+00
             5.800000000000000E+00     5.810000000000001E+00     5.820000000000000E+00     5.830000000000000E+00
             5.840000000000000E+00     5.850000000000000E+00     5.859999999999999E+00     5.870000000000000E+00
             5.880000000000000E+00     5.890000000000001E+00     5.900000000000000E+00     5.910000000000000E+00
             5.920000000000000E+00     5.930000000000000E+00     5.940000000000000E+00     5.950000000000000E+00
             5.960000000000000E+00     5.970000000000000E+00     5.980000000000000E+00     5.990000000000000E+00
             6.000000000000000E+00     6.010000000000000E+00     6.020000000000000E+00     6.030000000000000E+00
             6.040000000000000E+00     6.050000000000000E+00     6.060000000000001E+00     6.070000000000000E+00
             6.080000000000000E+00     6.090000000000000E+00     6.100000000000000E+00     6.109999999999999E+00
             6.120000000000000E+00     6.130000000000000E+00     6.140000000000000E+00     6.150000000000000E+00
             6.160000000000000E+00     6.170000000000000E+00     6.180000000000000E+00     6.190000000000000E+00
             6.200000000000000E+00     6.210000000000000E+00     6.220000000000000E+00     6.230000000000000E+00
             6.240000000000000E+00     6.250000000000000E+00     6.260000000000000E+00     6.270000000000000E+00
             6.280000000000000E+00     6.290000000000000E+00     6.300000000000000E+00     6.310000000000001E+00
             6.320000000000000E+00     6.330000000000000E+00     6.340000000000000E+00     6.350000000000000E+00
             6.359999999999999E+00     6.370000000000000E+00     6.380000000000000E+00     6.390000000000000E+00
             6.400000000000000E+00     6.410000000000000E+00     6.420000000000000E+00     6.430000000000000E+00
             6.440000000000000E+00     6.450000000000000E+00     6.460000000000000E+00     6.470000000000000E+00
             6.480000000000000E+00     6.490000000000000E+00     6.500000000000000E+00     6.510000000000000E+00
             6.520000000000000E+00     6.530000000000000E+00     6.540000000000000E+00     6.550000000000000E+00
             6.560000000000001E+00     6.570000000000000E+00     6.580000000000000E+00     6.590000000000000E+00
             6.600000000000000E+00     6.609999999999999E+00     6.620000000000000E+00     6.630000000000000E+00
             6.640000000000000E+00     6.650000000000000E+00     6.660000000000000E+00     6.670000000000000E+00
             6.680000000000000E+00     6.690000000000000E+00     6.700000000000000E+00     6.710000000000000E+00
             6.720000000000000E+00     6.730000000000000E+00     6.740000000000000E+00     6.750000000000000E+00
             6.760000000000000E+00     6.770000000000000E+00     6.780000000000000E+00     6.790000000000000E+00
             6.800000000000000E+00     6.810000000000001E+00     6.820000000000000E+00     6.830000000000000E+00
             6.840000000000000E+00     6.850000000000000E+00     6.859999999999999E+00     6.870000000000000E+00
             6.880000000000000E+00     6.890000000000000E+00     6.900000000000000E+00     6.910000000000000E+00
             6.920000000000000E+00     6.930000000000000E+00     6.940000000000000E+00     6.950000000000000E+00
             6.960000000000000E+00     6.970000000000000E+00     6.980000000000000E+00     6.990000000000000E+00
             7.000000000000000E+00     7.010000000000000E+00     7.020000000000000E+00     7.030000000000000E+00
             7.040000000000000E+00     7.050000000000000E+00     7.060000000000000E+00     7.070000000000000E+00
             7.080000000000000E+00     7.090000000000000E+00     7.100000000000000E+00     7.110000000000000E+00
             7.120000000000000E+00     7.130000000000000E+00     7.140000000000000E+00     7.150000000000000E+00
             7.160000000000000E+00     7.170000000000000E+00     7.180000000000000E+00     7.190000000000000E+00
             7.200000000000000E+00     7.210000000000000E+00     7.220000000000000E+00     7.230000000000000E+00
             7.240000000000000E+00     7.250000000000000E+00     7.260000000000000E+00     7.270000000000000E+00
             7.280000000000000E+00     7.290000000000000E+00     7.300000000000000E+00     7.310000000000000E+00
             7.320000000000000E+00     7.330000000000000E+00     7.340000000000000E+00     7.350000000000000E+00
             7.360000000000000E+00     7.370000000000000E+00     7.380000000000000E+00     7.390000000000000E+00
             7.400000000000000E+00     7.410000000000000E+00     7.420000000000000E+00     7.430000000000000E+00
             7.440000000000000E+00     7.450000000000000E+00     7.460000000000000E+00     7.470000000000000E+00
             7.480000000000000E+00     7.490000000000000E+00     7.500000000000000E+00     7.510000000000000E+00
             7.520000000000000E+00     7.530000000000000E+00     7.540000000000000E+00     7.550000000000000E+00
             7.560000000000000E+00     7.570000000000000E+00     7.580000000000000E+00     7.590000000000000E+00
             7.600000000000000E+00     7.610000000000000E+00     7.620000000000000E+00     7.630000000000000E+00
             7.640000000000000E+00     7.650000000000000E+00     7.660000000000000E+00     7.670000000000000E+00
             7.680000000000000E+00     7.690000000000000E+00     7.700000000000000E+00     7.710000000000000E+00
             7.720000000000000E+00     7.730000000000000E+00     7.740000000000000E+00     7.750000000000000E+00
             7.760000000000000E+00     7.770000000000000E+00     7.780000000000000E+00     7.790000000000000E+00
             7.800000000000000E+00     7.810000000000000E+00     7.820000000000000E+00     7.830000000000000E+00
             7.840000000000000E+00     7.850000000000000E+00     7.860000000000000E+00     7.870000000000000E+00
             7.880000000000000E+00     7.890000000000000E+00     7.900000000000000E+00     7.910000000000000E+00
             7.920000000000000E+00     7.930000000000000E+00     7.940000000000000E+00     7.950000000000000E+00
             7.960000000000000E+00     7.970000000000000E+00     7.980000000000000E+00     7.990000000000000E+00
             8.000000000000000E+00
    </PP_R>
    <PP_RAB type="real" size="801" columns="4">
             1.000000000000000E-02     1.000000000000000E-02     1.000000000000000E-02     1.000000000000000E-02
             1.000000000000000E-02     1.000000000000000E-02     1.000000000000000E-02     1.000000000000000E-02
             1.000000000000000E-02     1.000000000000000E-02     1.000000000000000E-02     1.000000000000000E-02
             1.000000000000000E-02     1.000000000000000E-02     1.000000000000000E-02     1.000000000000000E-02
             1.000000000000000E-02     1.000000000000000E-02     1.000000000000000E-02     1.000000000000000E-02
             1.000000000000000E-02     1.000000000000000E-02     1.000000000000000E-02     1.000000000000000E-02
             1.000000000000000E-02     1.000000000000000E-02     1.000000000000000E-02     1.000000000000000E-02
             1.000000000000000E-02     1.000000000000000E-02     1.000000000000000E-02     1.000000000000000E-02
             1.000000000000000E-02     1.000000000000000E-02     1.000000000000000E-02     1.000000000000000E-02
             1.000000000000000E-02     1.000000000000000E-02     1.000000000000000E-02     1.000000000000000E-02
             1.000000000000000E-02     1.000000000000000E-02     1.000000000000000E-02     1.000000000000000E-02
             1.000000000000000E-02     1.000000000000000E-02     1.000000000000000E-02     1.000000000000000E-02
             1.000000000000000E-02     1.000000000000000E-02     1.000000000000000E-02     1.000000000000000E-02
             1.000000000000000E-02     1.000000000000000E-02     1.000000000000000E-02     1.000000000000000E-02
             1.000000000000000E-02     1.000000000000000E-02     1.000000000000000E-02     1.000000000000000E-02
             1.000000000000000E-02     1.000000000000000E-02     1.000000000000000E-02     1.000000000000000E-02
             1.000000000000000E-02     1.000000000000000E-02     1.000000000000000E-02     1.000000000000000E-02
             1.000000000000000E-02     1.000000000000000E-02     1.000000000000000E-02     1.000000000000000E-02
             1.000000000000000E-02     1.000000000000000E-02     1.000000000000000E-02     1.000000000000000E-02
             1.000000000000000E-02     1.000000000000000E-02     1.000000000000000E-02     1.000000000000000E-02
             1.000000000000000E-02     1.000000000000000E-02     1.000000000000000E-02     1.000000000000000E-02
             1.000000000000000E-02     1.000000000000000E-02     1.000000000000000E-02     1.000000000000000E-02
             1.000000000000000E-02     1.000000000000000E-02     1.000000000000000E-02     1.000000000000000E-02
             1.000000000000000E-02     1.000000000000000E-02     1.000000000000000E-02     1.000000000000000E-02
             1.000000000000000E-02     1.000000000000000E-02     1.000000000000000E-02     1.000000000000000E-02
             1.000000000000000E-02     1.000000000000000E-02     1.000000000000000E-02     1.000000000000000E-02
             1.000000000000000E-02     1.000000000000000E-02     1.000000000000000E-02     1.000000000000000E-02
             1.000000000000000E-02     1.000000000000000E-02     1.000000000000000E-02     1.000000000000000E-02
             1.000000000000000E-02     1.000000000000000E-02     1.000000000000000E-02     1.000000000000000E-02
             1.000000000000000E-02     1.000000000000000E-02     1.000000000000000E-02     1.000000000000000E-02
             1.000000000000000E-02     1.000000000000000E-02     1.000000000000000E-02     1.000000000000000E-02
             1.000000000000000E-02     1.000000000000000E-02     1.000000000000000E-02     1.000000000000000E-02
             1.000000000000000E-02     1.000000000000000E-02     1.000000000000000E-02     1.000000000000000E-02
             1.000000000000000E-02     1.000000000000000E-02     1.000000000000000E-02     1.000000000000000E-02
             1.000000000000000E-02     1.000000000000000E-02     1.000000000000000E-02     1.000000000000000E-02
             1.000000000000000E-02     1.000000000000000E-02     1.000000000000000E-02     1.000000000000000E-02
             1.000000000000000E-02     1.000000000000000E-02     1.000000000000000E-02     1.000000000000000E-02
             1.000000000000000E-02     1.000000000000000E-02     1.000000000000000E-02     1.000000000000000E-02
             1.000000000000000E-02     1.000000000000000E-02     1.000000000000000E-02     1.000000000000000E-02
             1.000000000000000E-02     1.000000000000000E-02     1.000000000000000E-02     1.000000000000000E-02
             1.000000000000000E-02     1.000000000000000E-02     1.000000000000000E-02     1.000000000000000E-02
             1.000000000000000E-02     1.000000000000000E-02     1.000000000000000E-02     1.000000000000000E-02
             1.000000000000000E-02     1.000000000000000E-02     1.000000000000000E-02     1.000000000000000E-02
             1.000000000000000E-02     1.000000000000000E-02     1.000000000000000E-02     1.000000000000000E-02
             1.000000000000000E-02     1.000000000000000E-02     1.000000000000000E-02     1.000000000000000E-02
             1.000000000000000E-02     1.000000000000000E-02     1.000000000000000E-02     1.000000000000000E-02
             1.000000000000000E-02     1.000000000000000E-02     1.000000000000000E-02     1.000000000000000E-02
             1.000000000000000E-02     1.000000000000000E-02     1.000000000000000E-02     1.000000000000000E-02
             1.000000000000000E-02     1.000000000000000E-02     1.000000000000000E-02     1.000000000000000E-02
             1.000000000000000E-02     1.000000000000000E-02     1.000000000000000E-02     1.000000000000000E-02
             1.000000000000000E-02     1.000000000000000E-02     1.000000000000000E-02     1.000000000000000E-02
             1.000000000000000E-02     1.000000000000000E-02     1.000000000000000E-02     1.000000000000000E-02
             1.000000000000000E-02     1.000000000000000E-02     1.000000000000000E-02     1.000000000000000E-02